<VTKFile type="UnstructuredGrid" version="0.1" byte_order="LittleEndian">
  <UnstructuredGrid>
    <Piece NumberOfPoints="149" NumberOfCells="135">
      <PointData Scalars="Amplitude">
        <DataArray type="Float32" Name="Amplitude" format="ascii" RangeMin="-67" RangeMax="-45.853271484">
          -47.5 -46.5 -47.5 -48.875 -48.125 -48.75
          -47.375 -50.5 -54.875 -50.375 -55 -50.5
          -54.75 -51.75 -51.5 -50.25 -54 -57
          -60 -57.125 -61.25 -58.5 -56.25 -58.5
          -50 -48.5 -50.25 -55.5 -64.75 -56.25
          -47 -46.25 -50.5 -49 -48.5 -48.5
          -47.5 -53.125 -53.5 -50.875 -52.125 -60
          -61 -55.5 -65 -67 -55.5 -55.5
          -46 -46 -46 -47.5 -50.75 -48
          -49.375 -48.5 -49.75 -48.25 -47.25 -48
          -47.25 -48 -46.5 -48 -46.5 -48
          -46.5 -53.5 -52.375 -52.5 -50.875 -51
          -49.5 -49.5 -49.5 -57.25 -56.25 -55.875
          -56.25 -54 -54.75 -55.5 -61.5 -58.5
          -56.25 -57 -54 -54 -55.5 -57
          -45.853271484 -50.470901489 -50.375 -46.25 -46.28294754 -46.5
          -50.219215393 -49.86315155 -47.233646393 -48.673805237 -47.541568756 -48.751350403
          -48.947635651 -48.739192963 -48.585109711 -49 -49 -48.642818451
          -48.5 -53.622173309 -55.213546753 -54.804550171 -55.234828949 -53.614013672
          -52.984104156 -51.820449829 -51.674766541 -51.936408997 -51.822902679 -51.795513153
          -60.77394104 -59.758422852 -61.190563202 -57.041061401 -56.99055481 -55.932468414
          -55.603855133 -55.629669189 -52.77809906 -54.662708282 -65.504898071 -64.540550232
          -67 -57.259056091 -61.25 -60.517528534 -58.271003723 -55.829456329
          -55.520568848 -54 -48.204391479 -48.497463226 -48.089286804 -52.89723587
          -52.321430206 -53.365959167 -59.969818115 -57.794120789 -57.839286804
        </DataArray>
      </PointData>
      <CellData>
      </CellData>
      <Points>
        <DataArray type="Float32" Name="Points" NumberOfComponents="3" format="ascii" RangeMin="3.1688708763" RangeMax="8.1240384046">
          2 3 0 3 2 0
          3 3 0 3 3 1
          2 4 1 2 4 0
          3 4 1 4 0 1
          4 1 2 4 1 1
          5 0 2 5 0 1
          5 1 2 1 5 2
          2 4 2 2 5 2
          2 5 3 3 2 3
          4 1 3 4 2 3
          4 2 4 3 3 4
          3 3 3 4 3 4
          3 2 1 3 4 0
          5 1 1 2 4 3
          4 1 4 4 3 3
          4 2 0 4 1 0
          4 2 1 1 5 0
          1 5 1 2 5 0
          2 5 1 3 2 2
          4 2 2 3 4 2
          3 3 2 5 1 3
          5 0 3 3 4 3
          5 1 4 5 0 4
          2 4 4 3 4 4
          4 0 0 5 0 0
          5 1 0 5 2 0
          5 2 1 4 3 0
          4 3 1 5 3 0
          5 3 1 4 4 0
          4 4 1 5 4 0
          5 4 1 3 5 0
          3 5 1 4 5 0
          4 5 1 5 5 0
          5 5 1 5 2 2
          4 3 2 5 3 2
          4 4 2 5 4 2
          3 5 2 4 5 2
          5 5 2 5 2 3
          5 3 3 4 4 3
          5 4 3 3 5 3
          4 5 3 5 5 3
          5 2 4 5 3 4
          4 4 4 5 4 4
          2 5 4 3 5 4
          4 5 4 5 5 4
          3.7065412998 0 0 3.8836116791 0 1
          3.2593388557 1 1 3.0822684765 1 0
          3 1.1317830086 0 2.4579956532 2 0
          3 1.415425539 1 2.6350660324 2 1
          2 2.7336468697 0 2 3 0.93904536963
          1.833722949 3 0 2.0107932091 3 1
          1.2094501257 4 0 2 3.0172894001 1
          1.3865203857 4 1 1 4.3355107307 0
          0.58517730236 5 0 1 4.6191530228 1
          0.76224762201 5 1 4 0 1.6572998762
          4 0.097204342484 2 3.436409235 1 2
          4.0606818199 0 2 3 1.6990680695 2
          2.8121364117 2 2 2.1878635883 3 2
          2 3.3009319305 2 1.563590765 4 2
          1 4.9027957916 2 0.93931794167 5 2
          4 0.38084691763 3 3.6134796143 1 3
          4.2377524376 0 3 3 1.9827107191 3
          2.9892067909 2 3 2.3649339676 3 3
          2 3.584574461 3 1.7406611443 4 3
          1 5 2.342700243 1.1163883209 5 3
          4 0.66448944807 4 3.7905499935 1 4
          4.4148225784 0 4 3 2 3.0609545708
          3.1662771702 2 4 3 2.2663531303 4
          2.5420043468 3 4 2 3.8682169914 4
          1.9177314043 4 4 1.2934587002 5 4
          2.2207710743 2.5467293262 0.58780908585 1.6859387159 3.40345788 0.58780908585
          2.5714285374 3.5714285374 0.42857143283 3.7158720493 0.41944086552 1.5314599276
          4.5714287758 0.57142859697 1.4285714626 1.2841280699 4.5805592537 2.4685399532
          3.3140614033 1.59654212 3.4121909142 2.7792289257 2.4532706738 3.4121909142
          3.5714285374 2.5714285374 3.4285714626
        </DataArray>
      </Points>
      <Cells>
        <DataArray type="Int32" Name="connectivity" format="ascii" RangeMin="0" RangeMax="148">
          0 98 99 100 1 2
          0 140 0 2 3 140
          99 98 0 140 99 0
          100 141 0 4 5 141
          4 103 104 141 4 3
          0 142 3 2 0 142
          5 4 0 142 4 6
          3 142 109 7 91 143
          7 8 9 143 8 110
          111 143 8 10 7 144
          10 11 7 144 9 8
          7 144 8 12 10 144
          13 118 128 119 14 15
          13 145 13 15 16 145
          128 118 13 145 17 123
          133 124 18 19 17 146
          17 19 20 146 133 123
          17 146 133 17 124 147
          17 21 22 147 21 135
          136 147 21 20 17 148
          20 19 17 148 22 21
          17 148 21 23 20 148
          2 1 24 3 140 0
          3 101 99 140 101 3
          24 97 140 97 24 1
          95 140 95 1 0 98
          140 102 5 4 104 141
          100 0 5 102 141 99
          103 4 0 141 6 25
          2 3 142 5 0 2
          25 142 5 25 6 4
          142 92 9 8 111 143
          91 7 9 92 143 109
          110 8 7 143 12 26
          11 10 144 9 7 11
          26 144 9 26 12 8
          144 15 14 27 16 145
          13 16 129 128 145 129
          16 27 127 145 127 27
          14 117 145 117 14 13
          118 145 19 18 28 20
          146 17 20 134 133 146
          134 20 28 131 146 131
          28 18 121 146 121 18
          17 123 146 125 22 21
          136 147 124 17 22 125
          147 133 135 21 17 147
          23 29 19 20 148 22
          17 19 29 148 22 29
          23 21 148 1 94 95
          24 96 97 30 31 1
          32 9 24 4 3 0
          103 101 99 33 105 106
          34 107 108 35 5 33
          36 4 34 8 10 7
          110 112 109 24 96 97
          37 113 114 32 9 24
          38 8 37 4 103 104
          14 116 117 6 3 4
          39 40 14 34 107 108
          13 118 119 36 4 34
          15 14 13 8 110 111
          18 120 121 12 10 8
          41 42 18 37 113 114
          17 123 124 38 8 37
          19 18 17 14 116 117
          27 126 127 39 40 14
          43 22 27 18 120 121
          28 130 131 41 42 18
          44 45 28 21 20 17
          135 134 133 27 126 127
          46 137 138 43 22 27
          47 21 46 48 7 9
          31 90 91 92 93 48
          49 50 31 7 11 26
          9 93 94 96 92 31
          1 24 9 31 50 51
          30 9 26 52 32 1
          30 53 2 24 32 54
          3 30 51 55 53 32
          52 56 54 2 53 57
          25 3 54 58 6 53
          55 59 57 54 56 60
          58 102 105 107 104 5
          33 34 4 5 25 61
          35 4 6 62 36 25
          57 63 61 6 58 64
          62 57 59 65 63 58
          60 66 64 92 96 113
          111 9 24 37 8 9
          26 52 32 8 12 67
          38 24 37 40 3 97
          114 115 101 24 32 54
          3 37 38 68 40 32
          52 56 54 38 67 69
          68 101 103 116 115 3
          4 14 40 3 54 58
          6 40 68 70 39 54
          56 60 58 68 69 71
          70 104 107 118 117 4
          34 13 14 4 6 62
          36 14 39 72 15 6
          58 64 62 39 70 73
          72 58 60 66 64 70
          71 74 73 112 110 120
          122 10 8 18 42 111
          113 123 121 8 37 17
          18 8 12 67 38 18
          41 75 19 37 17 22
          40 114 124 125 115 37
          38 68 40 17 19 29
          22 38 67 69 68 19
          75 76 29 115 116 126
          125 40 14 27 22 40
          68 70 39 22 29 77
          43 68 69 71 70 29
          76 78 77 14 39 72
          15 27 43 79 16 39
          70 73 72 43 77 80
          79 70 71 74 73 77
          78 81 80 122 120 130
          132 42 18 28 45 18
          41 75 19 28 44 82
          20 19 75 76 29 20
          82 83 23 125 126 137
          136 22 27 46 21 22
          29 77 43 21 23 84
          47 29 76 78 77 23
          83 85 84 27 46 86
          16 127 138 139 129 27
          43 79 16 46 47 87
          86 43 77 80 79 47
          84 88 87 77 78 81
          80 84 85 89 88
        </DataArray>
        <DataArray type="Int32" Name="offsets" format="ascii" RangeMin="4" RangeMax="803">
          4 8 12 16 20 24
          28 32 36 40 44 48
          52 56 60 64 68 72
          76 80 84 88 92 96
          100 104 108 112 116 120
          124 128 132 137 142 147
          152 157 162 167 172 177
          182 187 192 197 202 207
          212 217 222 227 232 237
          242 247 252 257 262 267
          272 277 282 287 292 297
          303 309 315 321 327 333
          339 345 351 357 363 369
          375 381 387 393 399 405
          411 417 423 429 435 443
          451 459 467 475 483 491
          499 507 515 523 531 539
          547 555 563 571 579 587
          595 603 611 619 627 635
          643 651 659 667 675 683
          691 699 707 715 723 731
          739 747 755 763 771 779
          787 795 803
        </DataArray>
        <DataArray type="UInt8" Name="types" format="ascii" RangeMin="10" RangeMax="14">
          10 10 10 10 10 10
          10 10 10 10 10 10
          10 10 10 10 10 10
          10 10 10 10 10 10
          10 10 10 10 10 10
          10 10 10 14 14 14
          14 14 14 14 14 14
          14 14 14 14 14 14
          14 14 14 14 14 14
          14 14 14 14 14 14
          14 14 14 14 14 14
          13 13 13 13 13 13
          13 13 13 13 13 13
          13 13 13 13 13 13
          13 13 13 13 13 12
          12 12 12 12 12 12
          12 12 12 12 12 12
          12 12 12 12 12 12
          12 12 12 12 12 12
          12 12 12 12 12 12
          12 12 12 12 12 12
          12 12 12 12 12 12
          12 12 12
        </DataArray>
      </Cells>
    </Piece>
  </UnstructuredGrid>
</VTKFile>
