# vtk DataFile Version 2.0
Volume example
ASCII
DATASET STRUCTURED_POINTS
DIMENSIONS 3 4 6
ORIGIN 0 0 0
SPACING 2 2 2
POINT_DATA 72
SCALARS volume_scalars char 1
LOOKUP_TABLE default
50 50 50 50 50 50 50 50 50 50 50 50
40 40 40 40 40 40 40 40 40 40 40 40
30 30 30 30 30 30 30 30 30 30 30 30
20 20 20 20 20 20 20 20 20 20 20 20
10 10 10 10 10 10 10 10 10 10 10 10
0 0 0 0 0 0 0 0 0 0 0 0
