<VTKFile type="ImageData" version="0.1" byte_order="LittleEndian">
  <ImageData WholeExtent="0 18 0 18 0 2" Origin="0 0 0" Spacing="1 1 1">
  <Piece Extent="0 18 0 18 0 2">
    <PointData>
    </PointData>
    <CellData Scalars="Amplitude">
      <DataArray type="Float32" Name="Amplitude" format="ascii" RangeMin="-85.15511322" RangeMax="-35.685710907">
        -63.587581635 -62.689601898 -59.487949371 -50.91009903 -49.512741089 -51.609729767
        -50.252269745 -47.62266922 -46.698631287 -47.628551483 -52.703300476 -50.97121048
        -40.004810333 -38.15581131 -44.065620422 -61.380340576 -50.247299194 -51.760978699
        -62.854789734 -63.016441345 -62.476928711 -56.964939117 -50.791488647 -48.143821716
        -50.115718842 -49.859130859 -47.467601776 -46.874320984 -47.409851074 -53.651828766
        -48.90140152 -38.937858582 -37.7748909 -44.438468933 -60.329990387 -49.504650116
        -66.905693054 -61.580699921 -55.807220459 -49.978050232 -47.570671082 -49.007911682
        -50.156139374 -48.782550812 -48.036499023 -48.767921448 -54.914241791 -49.019050598
        -38.800411224 -37.042831421 -42.680011749 -65.384437561 -50.174449921 -50.007389069
        -70.662628174 -70.794036865 -61.161369324 -54.494918823 -49.13779068 -47.139209747
        -48.622768402 -50.988311768 -51.670959473 -51.909191132 -53.208850861 -72.695892334
        -45.695068359 -37.98915863 -37.105381012 -43.431770325 -66.017852783 -50.166858673
        -79.746902466 -61.749061584 -53.11579895 -48.369560242 -46.54378891 -48.218948364
        -51.404960632 -53.447048187 -54.437690735 -54.879631042 -54.533088684 -44.513881683
        -38.479469299 -37.508369446 -42.328411102 -59.533790588 -52.710731506 -50.684528351
        -62.090610504 -67.500053406 -60.377658844 -50.715641022 -45.545600891 -44.485488892
        -47.306720734 -51.756340027 -51.467441559 -51.149990082 -50.854888916 -49.343608856
        -43.422561646 -38.889801025 -38.510101318 -43.99697113 -61.820278168 -51.771820068
        -61.963199615 -63.400348663 -49.233848572 -43.8294487 -42.562049866 -45.215511322
        -51.596549988 -52.519851685 -51.009269714 -50.586341858 -50.132968903 -44.820438385
        -39.948059082 -39.300418854 -43.876689911 -60.359039307 -52.784698486 -50.826271057
        -54.872180939 -55.00484848 -61.170021057 -49.811489105 -43.387340546 -41.767219543
        -44.777030945 -53.838611603 -51.548858643 -50.321018219 -50.862319946 -52.207611084
        -46.000980377 -40.639621735 -40.37361908 -45.808631897 -62.735229492 -52.302200317
        -51.821590424 -64.699768066 -47.66986084 -42.034980774 -41.263450623 -44.461978912
        -51.580440521 -52.842079163 -51.403858185 -52.331619263 -56.964771271 -49.033958435
        -41.966888428 -41.184360504 -46.572639465 -66.156692505 -52.367679596 -50.413349152
        -51.891471863 -54.705150604 -63.013931274 -47.421878815 -41.821678162 -41.285358429
        -45.317058563 -53.37997818 -51.351219177 -49.984470367 -51.343681335 -58.375389099
        -48.690299988 -41.871261597 -41.572738647 -47.945888519 -67.889701843 -52.202690125
        -54.95362854 -66.100097656 -47.948459625 -42.36713028 -41.736660004 -46.012039185
        -54.39994812 -52.074981689 -49.819778442 -51.771850586 -61.822238922 -48.820468903
        -41.672969818 -41.207080841 -47.046569824 -74.374046326 -52.655208588 -51.24438858
        -47.694591522 -48.861351013 -56.607250214 -48.85118103 -43.589820862 -43.443950653
        -50.030860901 -56.515441895 -50.402931213 -49.476200104 -51.212680817 -56.564968109
        -46.239059448 -40.731510162 -41.128948212 -47.922290802 -66.373222351 -53.222568512
        -49.105888367 -55.295341492 -51.386859894 -41.694389343 -41.913059235 -47.67440033
        -59.487041473 -50.203651428 -48.220890045 -48.845439911 -50.877868652 -45.504379272
        -40.483600616 -40.582038879 -46.225608826 -66.355422974 -54.878879547 -52.263370514
        -54.014091492 -57.039989471 -56.419048309 -44.682010651 -39.751968384 -39.99213028
        -45.681800842 -62.607650757 -51.082069397 -47.882198334 -47.221931458 -47.686798096
        -44.09828949 -40.256969452 -41.165180206 -48.762889862 -57.821498871 -53.692901611
        -60.603130341 -56.095500946 -44.450149536 -38.938079834 -38.557338715 -43.603240967
        -56.557109833 -53.18404007 -49.052909851 -47.654819489 -47.670860291 -44.579090118
        -40.892421722 -41.409481049 -48.306591034 -55.710800171 -52.950939178 -52.246799469
        -57.884010315 -66.745193481 -53.520080566 -44.093128204 -38.670051575 -38.515830994
        -44.226661682 -54.310779572 -53.542560577 -50.115119934 -49.173908234 -49.473548889
        -45.669509888 -41.206661224 -42.524829865 -49.564331055 -53.626270294 -51.588039398
        -63.981269836 -56.595291138 -44.577999115 -38.336738586 -38.250930786 -43.406238556
        -53.865150452 -55.252441406 -51.05147171 -50.129398346 -51.051330566 -46.743450165
        -41.415111542 -42.532970428 -50.021629333 -52.157909393 -51.38286972 -51.526870728
        -74.292907715 -55.119140625 -53.270320892 -43.498210907 -35.685710907 -37.941928864
        -43.801361084 -54.407279968 -55.516910553 -51.151348114 -50.136329651 -50.801769257
        -45.987651825 -40.153308868 -43.414550781 -50.160720825 -51.746498108 -50.728599548
        -66.712646484 -66.76525116 -60.828990936 -55.035160065 -50.465839386 -49.457859039
        -51.558311462 -51.632579803 -50.002849579 -49.565048218 -51.469341278 -62.424800873
        -48.327468872 -41.230621338 -40.496421814 -45.613250732 -62.614948273 -54.609580994
        -68.898773193 -60.57334137 -54.220630646 -50.058479309 -48.483028412 -49.86164856
        -52.102180481 -50.999778748 -50.638088226 -51.973339081 -65.587638855 -48.596858978
        -40.985500336 -39.750240326 -44.301429749 -59.723880768 -54.936981201 -53.386138916
        -74.982139587 -65.437133789 -59.392101288 -53.689220428 -49.890388489 -48.430740356
        -49.095668793 -50.505138397 -50.757221222 -51.288749695 -53.888721466 -80.526863098
        -46.88507843 -40.280281067 -39.611240387 -44.818691254 -61.694259644 -53.82170105
        -66.831192017 -58.357471466 -53.59897995 -49.271438599 -47.93611908 -48.5561409
        -50.733181 -52.944671631 -54.194351196 -57.737941742 -58.79858017 -46.352649689
        -40.351661682 -39.52256012 -43.959411621 -58.810089111 -54.723999023 -52.199748993
        -68.234550476 -68.417022705 -59.087978363 -51.945560455 -47.729469299 -47.132678986
        -48.588878632 -51.495300293 -52.785678864 -53.907058716 -54.842498779 -52.143241882
        -44.848320007 -40.405769348 -40.175140381 -45.065830231 -58.902999878 -54.649688721
        -67.565040588 -58.873111725 -50.564788818 -46.340240479 -45.272548676 -47.534088135
        -51.444480896 -53.015419006 -52.664360046 -52.495121002 -51.430549622 -45.63230896
        -41.469528198 -41.012271881 -45.210720062 -58.315090179 -55.38476944 -51.605899811
        -58.925300598 -66.912612915 -57.863491058 -49.486980438 -44.912731171 -43.942180634
        -46.620941162 -51.30039978 -53.044929504 -51.988040924 -52.611240387 -52.007469177
        -46.289581299 -42.261199951 -42.086299896 -46.873908997 -61.306789398 -54.459640503
        -63.761001587 -58.526611328 -48.844718933 -44.073558807 -43.068618774 -45.687301636
        -51.11346817 -53.598400116 -53.14030838 -53.378360748 -54.843200684 -48.318828583
        -43.574478149 -43.027950287 -47.468608856 -61.361038208 -55.616989136 -51.691158295
        -56.852310181 -62.970970154 -58.42868042 -48.19203949 -43.593490601 -42.910968781
        -46.177150726 -51.484859467 -53.877239227 -52.877361298 -54.956039429 -58.469829559
        -49.044010162 -43.965461731 -43.954029083 -49.035171509 -68.390556335 -54.500709534
        -60.928089142 -60.825298309 -48.255661011 -43.594841003 -43.321079254 -46.41160965
        -52.613918304 -54.781898499 -53.353881836 -55.380661011 -61.158798218 -49.73456955
        -44.192588806 -43.843299866 -48.79719162 -66.888969421 -55.838378906 -52.616691589
        -55.654960632 -61.192970276 -59.063560486 -48.279109955 -43.802181244 -43.784641266
        -47.834300995 -55.534671783 -54.812591553 -53.453430176 -55.070659637 -60.590988159
        -48.433929443 -43.674629211 -44.037471771 -49.539188385 -71.020278931 -55.856319427
        -60.699008942 -59.120189667 -47.991508484 -43.659198761 -43.704410553 -48.0352211
        -59.014511108 -55.438739777 -52.636180878 -53.211071014 -55.594150543 -47.823570251
        -43.129310608 -43.339630127 -48.511638641 -63.296981812 -57.27999115 -53.649040222
        -56.58990097 -61.720909119 -55.702640533 -46.9438591 -42.724681854 -42.958999634
        -47.937660217 -60.054698944 -54.878131866 -51.490081787 -51.403888702 -50.995979309
        -46.264030457 -42.743289948 -43.502620697 -49.590629578 -63.201728821 -56.287578583
        -63.647819519 -54.35905838 -45.920120239 -41.751861572 -41.71818161 -46.061439514
        -58.137680054 -56.431289673 -50.961299896 -49.728370667 -49.183101654 -45.798400879
        -42.729259491 -43.395401001 -48.86989975 -58.540771484 -55.982910156 -53.993190765
        -61.737808228 -65.756988525 -52.79132843 -44.72795105 -40.853549957 -40.840148926
        -45.2045784 -54.931018829 -56.925788879 -51.86894989 -50.36907959 -49.342388153
        -45.942581177 -42.940090179 -44.095928192 -49.991851807 -55.997280121 -55.06924057
        -63.746311188 -52.128898621 -44.626838684 -40.501899719 -40.51158905 -44.352199554
        -53.225730896 -58.354278564 -53.025558472 -51.835941315 -51.163311005 -47.17963028
        -43.509101868 -44.419448853 -49.93265152 -55.187160492 -53.903759003 -53.154560089
        -85.15511322 -57.704158783 -51.099159241 -44.231910706 -39.768909454 -40.274909973
        -44.626808167 -53.308490753 -57.829738617 -53.638050079 -52.521751404 -52.107769012
        -47.525989532 -43.779670715 -45.434429169 -51.248989105 -53.865619659 -53.594470978
        -60.750648499 -54.937660217 -45.928279877 -39.744918823 -40.937461853 -45.102390289
        -53.945091248 -61.785758972 -55.449840546 -53.610118866 -52.247650146 -47.324848175
        -43.616569519 -44.766929626 -50.518028259 -53.897960663 -53.876991272 -53.550868988
      </DataArray>
    </CellData>
  </Piece>
  </ImageData>
</VTKFile>
