<VTKFile type="ImageData" version="0.1" byte_order="LittleEndian">
  <ImageData WholeExtent="0 30 0 30 0 5" Origin="0 0 0" Spacing="1 1 1">
  <Piece Extent="0 30 0 30 0 5">
    <PointData>
    </PointData>
    <CellData Scalars="11.02 GHz">
      <DataArray type="Float32" Name="Phase" format="ascii" RangeMin="-76.010971069" RangeMax="0">
        -42.422401428 -42.04309845 -41.420898438 -40.429218292 -40.324260712 -40.2849617
        -39.847270966 -40.166130066 -40.144989014 -40.912399292 -41.986408234 -43.175880432
        -44.142368317 -45.275260925 -42.80134964 -39.753398895 -43.450180054 -49.573120117
        -47.475208282 -45.928161621 -44.900230408 -44.176158905 -43.885829926 -42.451580048
        -42.687858582 -42.400180817 -42.171070099 -42.487918854 -42.990661621 -43.44411087
        -42.625400543 -41.840881348 -41.475658417 -41.022411346 -40.959461212 -40.88053894
        -41.045349121 -41.302661896 -42.003349304 -42.813430786 -44.604858398 -47.245658875
        -41.881469727 -35.128269196 -36.092681885 -41.466770172 -43.386009216 -42.696540833
        -41.811859131 -40.940158844 -40.297138214 -39.723388672 -39.344230652 -39.71987915
        -39.431491852 -39.570171356 -40.216041565 -40.582630157 -41.310909271 -41.893100739
        -40.746109009 -40.343959808 -39.885948181 -38.959968567 -38.89756012 -38.832370758
        -38.830890656 -39.144081116 -39.296009064 -39.912559509 -40.710411072 -41.248710632
        -40.856391907 -38.477230072 -32.968601227 -32.715770721 -41.020320892 -45.398281097
        -42.465309143 -41.130821228 -40.336898804 -41.679771423 -41.464710236 -41.625980377
        -41.68844986 -41.848320007 -43.228351593 -43.85326004 -44.577320099 -45.619361877
        -44.124469757 -43.081420898 -42.538730621 -41.811439514 -41.451290131 -40.726741791
        -40.787590027 -40.822330475 -40.57321167 -41.205581665 -42.874858856 -45.505779266
        -39.095180511 -30.699550629 -30.537479401 -34.662998199 -36.606098175 -37.283588409
        -37.815818787 -38.451599121 -38.662418365 -38.609069824 -38.308769226 -38.461730957
        -38.262649536 -38.582290649 -38.962581635 -39.584159851 -40.179168701 -40.565139771
        -39.703979492 -39.288478851 -39.020759583 -38.677539825 -38.423500061 -37.778800964
        -38.215881348 -38.854568481 -38.068050385 -35.044319153 -32.737468719 -31.53745079
        -30.369760513 -29.61782074 -29.107660294 -30.608959198 -40.290988922 -43.821090698
        -42.165748596 -39.813411713 -39.862449646 -39.83480072 -39.479179382 -40.006580353
        -40.251529694 -40.738689423 -41.315448761 -42.125431061 -43.109348297 -43.744380951
        -42.209320068 -41.280639648 -40.481311798 -39.805198669 -39.733009338 -39.579669952
        -38.489208221 -38.772609711 -38.442089081 -39.974910736 -40.670520782 -43.292289734
        -43.566829681 -34.264030457 -28.802919388 -28.019239426 -28.447910309 -29.467269897
        -31.361410141 -34.52463913 -38.93970871 -41.017799377 -38.67124939 -37.434768677
        -37.312149048 -37.521148682 -38.045589447 -38.52312088 -39.182109833 -39.684970856
        -39.018871307 -38.723400116 -38.362171173 -37.966098785 -37.717529297 -37.613189697
        -39.789279938 -46.949970245 -48.316120148 -39.581169128 -36.405979156 -34.930290222
        -34.18404007 -34.216331482 -36.709308624 -43.040180206 -44.565139771 -42.993598938
        -40.295448303 -39.94536972 -38.3123703 -38.875518799 -38.546600342 -38.901699066
        -38.950820923 -39.6183815 -40.123020172 -40.904628754 -41.884899139 -42.30134964
        -39.483829498 -39.156181335 -38.546390533 -38.222328186 -37.634140015 -38.103229523
        -38.250991821 -39.500469208 -41.048080444 -41.689548492 -42.701751709 -45.194210052
        -48.192180634 -48.391300201 -44.916950226 -42.548568726 -42.229888916 -42.107749939
        -43.082759857 -46.590999603 -42.599529266 -41.669128418 -41.807659149 -38.158901215
        -37.041591644 -36.96062851 -37.783248901 -38.151729584 -38.714000702 -39.290771484
        -39.021160126 -38.606010437 -38.173931122 -37.216930389 -36.974018097 -38.108470917
        -41.554580688 -37.411018372 -34.980728149 -37.609451294 -38.443248749 -39.0688591
        -40.884040833 -42.669651031 -45.164920807 -46.871841431 -45.891868591 -42.955181122
        -40.236301422 -38.798870087 -37.733379364 -38.13740921 -38.808551788 -38.795139313
        -38.713611603 -38.868721008 -39.624198914 -40.267269135 -41.081970215 -41.915248871
        -41.366539001 -40.151950836 -39.459629059 -38.981719971 -39.228099823 -39.409130096
        -36.148029327 -31.238079071 -30.883810043 -31.995319366 -34.346260071 -38.858829498
        -47.818210602 -44.688129425 -37.516048431 -34.088951111 -32.082321167 -31.022079468
        -30.837869644 -31.052999496 -32.391399384 -39.687011719 -41.130260468 -37.813461304
        -37.599441528 -37.58065033 -38.005939484 -38.637271881 -39.181610107 -39.580070496
        -39.556549072 -39.255451202 -38.904258728 -38.632381439 -38.414710999 -37.783969879
        -39.5105896 -43.280918121 -40.602619171 -35.796058655 -34.744621277 -34.584358215
        -35.319511414 -36.674530029 -39.965328217 -45.387050629 -47.153511047 -39.77243042
        -35.358440399 -33.101680756 -31.182149887 -29.723100662 -30.64397049 -37.115718842
        -39.078479767 -39.147640228 -39.451068878 -40.008918762 -40.754638672 -41.892829895
        -41.227630615 -40.312469482 -39.850631714 -39.386058807 -39.274459839 -36.667388916
        -29.907699585 -30.076259613 -34.933689117 -37.84677124 -40.109378815 -42.348419189
        -44.197238922 -45.044189453 -45.245731354 -45.153190613 -45.403320312 -46.013519287
        -46.594341278 -46.071369171 -43.521720886 -40.66973877 -38.784290314 -38.278079987
        -38.424129486 -38.539310455 -38.950271606 -39.318119049 -39.702739716 -40.087978363
        -40.041030884 -39.980400085 -39.860240936 -38.876720428 -39.918319702 -39.531238556
        -39.717319489 -40.59967041 -41.845241547 -44.152610779 -42.062778473 -39.416000366
        -38.149990082 -37.019889832 -36.790901184 -36.987258911 -37.61220932 -38.38602066
        -38.811668396 -38.682041168 -35.985229492 -30.876869202 -30.373779297 -35.54391861
        -38.290039062 -38.866531372 -39.668170929 -40.07477951 -40.550479889 -41.530460358
        -40.801280975 -40.259471893 -39.774318695 -39.45470047 -38.621681213 -36.670978546
        -31.594940186 -31.517959595 -34.559181213 -37.110431671 -35.780170441 -32.405250549
        -30.245010376 -28.833440781 -28.110519409 -28.247180939 -28.729709625 -30.120290756
        -32.459541321 -35.847061157 -39.420398712 -40.362319946 -39.626979828 -39.403141022
        -39.492191315 -39.684200287 -39.854370117 -39.932830811 -40.00605011 -40.019241333
        -40.026371002 -40.045181274 -40.271560669 -39.559059143 -41.000110626 -40.767829895
        -39.851360321 -37.826438904 -38.649211884 -36.818161011 -33.020088196 -30.456359863
        -29.15378952 -28.576910019 -28.436029434 -29.195249557 -30.366790771 -32.634380341
        -35.55260849 -37.231781006 -35.036411285 -33.405830383 -35.229049683 -37.26448822
        -38.28691864 -38.60477829 -39.249851227 -39.615840912 -39.979389191 -40.440868378
        -39.558681488 -39.220550537 -38.953109741 -38.784729004 -38.651348114 -38.406490326
        -38.10723877 -37.386730194 -37.949211121 -38.893531799 -39.074951172 -38.771209717
        -38.042011261 -37.633090973 -37.762298584 -38.500228882 -39.802520752 -41.885120392
        -44.009418488 -43.408748627 -38.03181076 -35.128749847 -38.125461578 -39.933200836
        -40.299930573 -40.063739777 -39.887451172 -39.897529602 -39.770778656 -39.914680481
        -39.518531799 -39.481658936 -39.494739532 -39.266159058 -40.55368042 -40.86428833
        -38.910629272 -32.968379974 -33.964939117 -37.733699799 -39.716590881 -41.574649811
        -43.911590576 -46.724681854 -47.4793396 -45.531650543 -42.872428894 -40.953529358
        -39.611820221 -39.246360779 -38.790779114 -39.117740631 -38.654190063 -38.046279907
        -37.686210632 -38.056529999 -38.003009796 -38.524700165 -38.831119537 -39.055179596
        -38.372558594 -38.08000946 -37.976928711 -38.041900635 -38.364379883 -39.309711456
        -39.945209503 -35.866691589 -33.047161102 -33.798690796 -35.388729095 -38.471660614
        -40.746379852 -38.426979065 -35.002639771 -32.504398346 -31.277410507 -29.813739777
        -29.4459095 -29.646289825 -29.931459427 -31.289470673 -38.179309845 -39.958179474
        -39.371860504 -39.088939667 -38.950809479 -39.097900391 -39.097118378 -39.268379211
        -39.016178131 -38.814208984 -38.68170166 -38.494338989 -39.075649261 -39.066490173
        -41.446929932 -36.923908234 -30.14248085 -28.525310516 -28.120670319 -28.265270233
        -29.125440598 -30.632989883 -32.854148865 -36.899990082 -39.8335495 -36.244091034
        -33.753501892 -30.553060532 -29.069219589 -29.66106987 -34.89332962 -39.636619568
        -38.293769836 -37.499340057 -37.338729858 -37.912128448 -38.152248383 -38.431510925
        -38.288299561 -38.029628754 -37.935668945 -38.102890015 -38.951831818 -39.99148941
        -30.972240448 -28.985759735 -32.229190826 -34.39522171 -36.951480865 -40.049739838
        -42.559200287 -41.484519958 -38.689590454 -37.202129364 -35.85515976 -34.905029297
        -35.007038116 -35.833889008 -38.342060089 -41.413600922 -40.673519135 -38.88615036
        -38.497959137 -38.44216156 -38.514709473 -38.596359253 -38.724578857 -38.970729828
        -38.946998596 -38.798530579 -38.694721222 -38.361980438 -38.83449173 -39.065940857
        -40.131061554 -42.278369904 -44.332778931 -43.27804184 -42.353691101 -41.906269073
        -41.872238159 -42.757339478 -43.442619324 -44.709598541 -45.548358917 -44.650299072
        -42.872348785 -38.823730469 -30.717250824 -39.986488342 -42.74684906 -38.642189026
        -39.279788971 -41.112419128 -37.009269714 -38.310710907 -39.166671753 -39.556819916
        -39.599491119 -39.248058319 -38.876171112 -38.951370239 -39.547389984 -39.117771149
        -35.638629913 -33.523429871 -35.05752182 -38.347999573 -42.072280884 -45.784221649
        -46.055679321 -43.487239838 -40.927219391 -39.794231415 -39.301719666 -39.71200943
        -40.36774826 -41.849319458 -43.75358963 -44.06829834 -42.162620544 -40.450469971
        -39.580551147 -38.920520782 -38.815498352 -38.97605896 -38.95911026 -39.385749817
        -39.554481506 -39.480060577 -39.482269287 -39.209308624 -39.857688904 -40.2358284
        -41.678230286 -44.576118469 -45.982841492 -41.678768158 -39.521999359 -37.440670013
        -42.039489746 -45.154640198 -37.408878326 -39.214321136 -41.711921692 -47.044219971
        -47.166671753 -40.485240936 -34.793228149 -31.349159241 -33.060138702 -39.562400818
        -40.102291107 -39.396160126 -39.126049042 -39.209629059 -39.485801697 -39.830509186
        -40.335388184 -40.023029327 -39.690170288 -39.406318665 -39.737350464 -39.858821869
        -37.138568878 -33.069320679 -33.702941895 -37.450180054 -46.743171692 -46.105560303
        -37.900650024 -34.185199738 -32.177330017 -31.758260727 -31.650289536 -32.161270142
        -33.621768951 -36.01927948 -40.772819519 -48.955181122 -44.033969879 -40.280269623
        -39.337398529 -38.960578918 -39.064128876 -39.352169037 -39.962589264 -39.835670471
        -40.342540741 -40.17898941 -40.098258972 -40.311950684 -39.674060822 -40.407581329
        -42.091121674 -47.043640137 -45.429168701 -41.277851105 -37.335399628 -35.502220154
        -34.523979187 -34.127639771 -34.978748322 -36.613498688 -39.848888397 -46.657291412
        -49.607868195 -39.969139099 -36.716308594 -37.758201599 -39.440029144 -40.612701416
        -40.660888672 -39.41960144 -39.513961792 -39.698360443 -39.938201904 -41.693641663
        -41.403770447 -40.548980713 -40.234191895 -39.974269867 -39.968761444 -40.201969147
        -40.966999054 -42.198680878 -44.210468292 -46.35369873 -48.967449188 -53.849731445
        -52.603031158 -48.268859863 -44.266590118 -41.695808411 -39.89799881 -38.697158813
        -37.883178711 -38.29032135 -37.768810272 -36.765419006 -37.107070923 -39.976768494
        -41.229488373 -41.503540039 -41.660079956 -42.053390503 -42.576560974 -42.805141449
        -43.227531433 -42.920150757 -42.347988129 -42.229919434 -42.078449249 -40.779109955
        -36.658599854 -33.99879837 -33.182098389 -32.603809357 -32.350639343 -32.590011597
        -33.386978149 -34.686130524 -36.742580414 -40.094600677 -45.959289551 -76.010971069
        -47.261810303 -42.534370422 -41.597568512 -43.331699371 -42.121578217 -40.996120453
        -40.394519806 -40.266178131 -40.420410156 -40.9204216 -41.544071198 -42.172550201
        -41.182579041 -40.420909882 -39.936580658 -39.746681213 -39.958580017 -40.862380981
        -43.207118988 -39.929859161 -36.230491638 -37.063179016 -40.831150055 -49.685508728
        -46.257141113 -38.728919983 -34.859718323 -32.580131531 -31.245019913 -30.521499634
        -30.306919098 -30.499160767 -31.40707016 -33.053890228 -36.784500122 -40.946479797
        -42.134288788 -42.158519745 -42.444160461 -43.015029907 -43.438499451 -44.093170166
        -43.643878937 -42.711761475 -42.233810425 -41.833930969 -41.705329895 -41.576560974
        -40.306919098 -36.847518921 -34.239299774 -32.875049591 -32.220058441 -32.043621063
        -32.517028809 -33.340820312 -34.974411011 -37.656280518 -42.229579926 -52.774078369
        -47.055030823 -39.624210358 -35.840229034 -36.291519165 -43.23828125 -41.881679535
        -39.74969101 -39.224441528 -39.464351654 -39.92016983 -40.690189362 -41.430408478
        -40.341308594 -39.496440887 -39.088798523 -38.829879761 -39.176681519 -40.964229584
        -45.485038757 -37.769989014 -36.634700775 -43.588809967 -55.852729797 -46.343910217
        -41.781448364 -39.104808807 -37.336589813 -36.309970856 -35.75994873 -35.669780731
        -35.950199127 -36.585151672 -37.649139404 -39.184238434 -40.380439758 -40.71421051
        -40.950668335 -41.052360535 -41.617290497 -42.300029755 -43.162879944 -44.361629486
        0 0 0 0 0 0
        0 0 0 0 0 0
        0 0 0 0 0 0
        0 0 0 0 0 0
        0 0 0 0 0 0
        0 0 0 0 0 0
        0 0 0 0 0 0
        0 0 0 0 0 0
        0 0 0 0 0 0
        0 0 0 0 0 0
        0 0 0 0 0 0
        0 0 0 0 0 0
        0 0 0 0 0 0
        0 0 0 0 0 0
        0 0 0 0 0 0
        0 0 0 0 0 0
        0 0 0 0 0 0
        0 0 0 0 0 0
        0 0 0 0 0 0
        0 0 0 0 0 0
        0 0 0 0 0 0
        0 0 0 0 0 0
        0 0 0 0 0 0
        0 0 0 0 0 0
        0 0 0 0 0 0
        0 0 0 0 0 0
        0 0 0 0 0 0
        0 0 0 0 0 0
        0 0 0 0 0 0
        0 0 0 0 0 0
        0 0 0 0 0 0
        0 0 0 0 0 0
        0 0 0 0 0 0
        0 0 0 0 0 0
        0 0 0 0 0 0
        0 0 0 0 0 0
        0 0 0 0 0 0
        0 0 0 0 0 0
        0 0 0 0 0 0
        0 0 0 0 0 0
        0 0 0 0 0 0
        0 0 0 0 0 0
        0 0 0 0 0 0
        0 0 0 0 0 0
        0 0 0 0 0 0
        0 0 0 0 0 0
        0 0 0 0 0 0
        0 0 0 0 0 0
        0 0 0 0 0 0
        0 0 0 0 0 0
        0 0 0 0 0 0
        0 0 0 0 0 0
        0 0 0 0 0 0
        0 0 0 0 0 0
        0 0 0 0 0 0
        0 0 0 0 0 0
        0 0 0 0 0 0
        0 0 0 0 0 0
        0 0 0 0 0 0
        0 0 0 0 0 0
        0 0 0 0 0 0
        0 0 0 0 0 0
        0 0 0 0 0 0
        0 0 0 0 0 0
        0 0 0 0 0 0
        0 0 0 0 0 0
        0 0 0 0 0 0
        0 0 0 0 0 0
        0 0 0 0 0 0
        0 0 0 0 0 0
        0 0 0 0 0 0
        0 0 0 0 0 0
        0 0 0 0 0 0
        0 0 0 0 0 0
        0 0 0 0 0 0
        0 0 0 0 0 0
        0 0 0 0 0 0
        0 0 0 0 0 0
        0 0 0 0 0 0
        0 0 0 0 0 0
        0 0 0 0 0 0
        0 0 0 0 0 0
        0 0 0 0 0 0
        0 0 0 0 0 0
        0 0 0 0 0 0
        0 0 0 0 0 0
        0 0 0 0 0 0
        0 0 0 0 0 0
        0 0 0 0 0 0
        0 0 0 0 0 0
        0 0 0 0 0 0
        0 0 0 0 0 0
        0 0 0 0 0 0
        0 0 0 0 0 0
        0 0 0 0 0 0
        0 0 0 0 0 0
        0 0 0 0 0 0
        0 0 0 0 0 0
        0 0 0 0 0 0
        0 0 0 0 0 0
        0 0 0 0 0 0
        0 0 0 0 0 0
        0 0 0 0 0 0
        0 0 0 0 0 0
        0 0 0 0 0 0
        0 0 0 0 0 0
        0 0 0 0 0 0
        0 0 0 0 0 0
        0 0 0 0 0 0
        0 0 0 0 0 0
        0 0 0 0 0 0
        0 0 0 0 0 0
        0 0 0 0 0 0
        0 0 0 0 0 0
        0 0 0 0 0 0
        0 0 0 0 0 0
        0 0 0 0 0 0
        0 0 0 0 0 0
        0 0 0 0 0 0
        0 0 0 0 0 0
        0 0 0 0 0 0
        0 0 0 0 0 0
        0 0 0 0 0 0
        0 0 0 0 0 0
        0 0 0 0 0 0
        0 0 0 0 0 0
        0 0 0 0 0 0
        0 0 0 0 0 0
        0 0 0 0 0 0
        0 0 0 0 0 0
        0 0 0 0 0 0
        0 0 0 0 0 0
        0 0 0 0 0 0
        0 0 0 0 0 0
        0 0 0 0 0 0
        0 0 0 0 0 0
        0 0 0 0 0 0
        0 0 0 0 0 0
        0 0 0 0 0 0
        0 0 0 0 0 0
        0 0 0 0 0 0
        0 0 0 0 0 0
        0 0 0 0 0 0
        0 0 0 0 0 0
        0 0 0 0 0 0
        0 0 0 0 0 0
        0 0 0 0 0 0
        0 0 0 0 0 0
        0 0 0 0 0 0
        0 0 0 0 0 0
        0 0 0 0 0 0
        0 0 0 0 0 0
        0 0 0 0 0 0
        0 0 0 0 0 0
        0 0 0 0 0 0
        0 0 0 0 0 0
        0 0 0 0 0 0
        0 0 0 0 0 0
        0 0 0 0 0 0
        0 0 0 0 0 0
        0 0 0 0 0 0
        0 0 0 0 0 0
        0 0 0 0 0 0
        0 0 0 0 0 0
        0 0 0 0 0 0
        0 0 0 0 0 0
        0 0 0 0 0 0
        0 0 0 0 0 0
        0 0 0 0 0 0
        0 0 0 0 0 0
        0 0 0 0 0 0
        0 0 0 0 0 0
        0 0 0 0 0 0
        0 0 0 0 0 0
        0 0 0 0 0 0
        0 0 0 0 0 0
        0 0 0 0 0 0
        0 0 0 0 0 0
        0 0 0 0 0 0
        0 0 0 0 0 0
        0 0 0 0 0 0
        0 0 0 0 0 0
        0 0 0 0 0 0
        0 0 0 0 0 0
        0 0 0 0 0 0
        0 0 0 0 0 0
        0 0 0 0 0 0
        0 0 0 0 0 0
        0 0 0 0 0 0
        0 0 0 0 0 0
        0 0 0 0 0 0
        0 0 0 0 0 0
        0 0 0 0 0 0
        0 0 0 0 0 0
        0 0 0 0 0 0
        0 0 0 0 0 0
        0 0 0 0 0 0
        0 0 0 0 0 0
        0 0 0 0 0 0
        0 0 0 0 0 0
        0 0 0 0 0 0
        0 0 0 0 0 0
        0 0 0 0 0 0
        0 0 0 0 0 0
        0 0 0 0 0 0
        0 0 0 0 0 0
        0 0 0 0 0 0
        0 0 0 0 0 0
        0 0 0 0 0 0
        0 0 0 0 0 0
        0 0 0 0 0 0
        0 0 0 0 0 0
        0 0 0 0 0 0
        0 0 0 0 0 0
        0 0 0 0 0 0
        0 0 0 0 0 0
        0 0 0 0 0 0
        0 0 0 0 0 0
        0 0 0 0 0 0
        0 0 0 0 0 0
        0 0 0 0 0 0
        0 0 0 0 0 0
        0 0 0 0 0 0
        0 0 0 0 0 0
        0 0 0 0 0 0
        0 0 0 0 0 0
        0 0 0 0 0 0
        0 0 0 0 0 0
        0 0 0 0 0 0
        0 0 0 0 0 0
        0 0 0 0 0 0
        0 0 0 0 0 0
        0 0 0 0 0 0
        0 0 0 0 0 0
        0 0 0 0 0 0
        0 0 0 0 0 0
        0 0 0 0 0 0
        0 0 0 0 0 0
        0 0 0 0 0 0
        0 0 0 0 0 0
        0 0 0 0 0 0
        0 0 0 0 0 0
        0 0 0 0 0 0
        0 0 0 0 0 0
        0 0 0 0 0 0
        0 0 0 0 0 0
        0 0 0 0 0 0
        0 0 0 0 0 0
        0 0 0 0 0 0
        0 0 0 0 0 0
        0 0 0 0 0 0
        0 0 0 0 0 0
        0 0 0 0 0 0
        0 0 0 0 0 0
        0 0 0 0 0 0
        0 0 0 0 0 0
        0 0 0 0 0 0
        0 0 0 0 0 0
        0 0 0 0 0 0
        0 0 0 0 0 0
        0 0 0 0 0 0
        0 0 0 0 0 0
        0 0 0 0 0 0
        0 0 0 0 0 0
        0 0 0 0 0 0
        0 0 0 0 0 0
        0 0 0 0 0 0
        0 0 0 0 0 0
        0 0 0 0 0 0
        0 0 0 0 0 0
        0 0 0 0 0 0
        0 0 0 0 0 0
        0 0 0 0 0 0
        0 0 0 0 0 0
        0 0 0 0 0 0
        0 0 0 0 0 0
        0 0 0 0 0 0
        0 0 0 0 0 0
        0 0 0 0 0 0
        0 0 0 0 0 0
        0 0 0 0 0 0
        0 0 0 0 0 0
        0 0 0 0 0 0
        0 0 0 0 0 0
        0 0 0 0 0 0
        0 0 0 0 0 0
        0 0 0 0 0 0
        0 0 0 0 0 0
        0 0 0 0 0 0
        0 0 0 0 0 0
        0 0 0 0 0 0
        0 0 0 0 0 0
        0 0 0 0 0 0
        0 0 0 0 0 0
        0 0 0 0 0 0
        0 0 0 0 0 0
        0 0 0 0 0 0
        0 0 0 0 0 0
        0 0 0 0 0 0
        0 0 0 0 0 0
        0 0 0 0 0 0
        0 0 0 0 0 0
        0 0 0 0 0 0
        0 0 0 0 0 0
        0 0 0 0 0 0
        0 0 0 0 0 0
        0 0 0 0 0 0
        0 0 0 0 0 0
        0 0 0 0 0 0
        0 0 0 0 0 0
        0 0 0 0 0 0
        0 0 0 0 0 0
        0 0 0 0 0 0
        0 0 0 0 0 0
        0 0 0 0 0 0
        0 0 0 0 0 0
        0 0 0 0 0 0
        0 0 0 0 0 0
        0 0 0 0 0 0
        0 0 0 0 0 0
        0 0 0 0 0 0
        0 0 0 0 0 0
        0 0 0 0 0 0
        0 0 0 0 0 0
        0 0 0 0 0 0
        0 0 0 0 0 0
        0 0 0 0 0 0
        0 0 0 0 0 0
        0 0 0 0 0 0
        0 0 0 0 0 0
        0 0 0 0 0 0
        0 0 0 0 0 0
        0 0 0 0 0 0
        0 0 0 0 0 0
        0 0 0 0 0 0
        0 0 0 0 0 0
        0 0 0 0 0 0
        0 0 0 0 0 0
        0 0 0 0 0 0
        0 0 0 0 0 0
        0 0 0 0 0 0
        0 0 0 0 0 0
        0 0 0 0 0 0
        0 0 0 0 0 0
        0 0 0 0 0 0
        0 0 0 0 0 0
        0 0 0 0 0 0
        0 0 0 0 0 0
        0 0 0 0 0 0
        0 0 0 0 0 0
        0 0 0 0 0 0
        0 0 0 0 0 0
        0 0 0 0 0 0
        0 0 0 0 0 0
        0 0 0 0 0 0
        0 0 0 0 0 0
        0 0 0 0 0 0
        0 0 0 0 0 0
        0 0 0 0 0 0
        0 0 0 0 0 0
        0 0 0 0 0 0
        0 0 0 0 0 0
        0 0 0 0 0 0
        0 0 0 0 0 0
        0 0 0 0 0 0
        0 0 0 0 0 0
        0 0 0 0 0 0
        0 0 0 0 0 0
        0 0 0 0 0 0
        0 0 0 0 0 0
        0 0 0 0 0 0
        0 0 0 0 0 0
        0 0 0 0 0 0
        0 0 0 0 0 0
        0 0 0 0 0 0
        0 0 0 0 0 0
        0 0 0 0 0 0
        0 0 0 0 0 0
        0 0 0 0 0 0
        0 0 0 0 0 0
        0 0 0 0 0 0
        0 0 0 0 0 0
        0 0 0 0 0 0
        0 0 0 0 0 0
        0 0 0 0 0 0
        0 0 0 0 0 0
        0 0 0 0 0 0
        0 0 0 0 0 0
        0 0 0 0 0 0
        0 0 0 0 0 0
        0 0 0 0 0 0
        0 0 0 0 0 0
        0 0 0 0 0 0
        0 0 0 0 0 0
        0 0 0 0 0 0
        0 0 0 0 0 0
        0 0 0 0 0 0
        0 0 0 0 0 0
        0 0 0 0 0 0
        0 0 0 0 0 0
        0 0 0 0 0 0
        0 0 0 0 0 0
        0 0 0 0 0 0
        0 0 0 0 0 0
        0 0 0 0 0 0
        0 0 0 0 0 0
        0 0 0 0 0 0
        0 0 0 0 0 0
        0 0 0 0 0 0
        0 0 0 0 0 0
        0 0 0 0 0 0
        0 0 0 0 0 0
        0 0 0 0 0 0
        0 0 0 0 0 0
        0 0 0 0 0 0
        0 0 0 0 0 0
        0 0 0 0 0 0
        0 0 0 0 0 0
        0 0 0 0 0 0
        0 0 0 0 0 0
        0 0 0 0 0 0
        0 0 0 0 0 0
        0 0 0 0 0 0
        0 0 0 0 0 0
        0 0 0 0 0 0
        0 0 0 0 0 0
        0 0 0 0 0 0
        0 0 0 0 0 0
        0 0 0 0 0 0
        0 0 0 0 0 0
        0 0 0 0 0 0
        0 0 0 0 0 0
        0 0 0 0 0 0
        0 0 0 0 0 0
        0 0 0 0 0 0
        0 0 0 0 0 0
        0 0 0 0 0 0
        0 0 0 0 0 0
        0 0 0 0 0 0
        0 0 0 0 0 0
        0 0 0 0 0 0
        0 0 0 0 0 0
        0 0 0 0 0 0
        0 0 0 0 0 0
        0 0 0 0 0 0
        0 0 0 0 0 0
        0 0 0 0 0 0
        0 0 0 0 0 0
        0 0 0 0 0 0
        0 0 0 0 0 0
        0 0 0 0 0 0
        0 0 0 0 0 0
        0 0 0 0 0 0
        0 0 0 0 0 0
        0 0 0 0 0 0
        0 0 0 0 0 0
        0 0 0 0 0 0
        0 0 0 0 0 0
        0 0 0 0 0 0
        0 0 0 0 0 0
        0 0 0 0 0 0
        0 0 0 0 0 0
        0 0 0 0 0 0
        0 0 0 0 0 0
        0 0 0 0 0 0
        0 0 0 0 0 0
        0 0 0 0 0 0
        0 0 0 0 0 0
        0 0 0 0 0 0
        0 0 0 0 0 0
        0 0 0 0 0 0
        0 0 0 0 0 0
        0 0 0 0 0 0
        0 0 0 0 0 0
        0 0 0 0 0 0
        0 0 0 0 0 0
        0 0 0 0 0 0
        0 0 0 0 0 0
        0 0 0 0 0 0
        0 0 0 0 0 0
        0 0 0 0 0 0
        0 0 0 0 0 0
        0 0 0 0 0 0
        0 0 0 0 0 0
        0 0 0 0 0 0
        0 0 0 0 0 0
        0 0 0 0 0 0
        0 0 0 0 0 0
        0 0 0 0 0 0
        0 0 0 0 0 0
        0 0 0 0 0 0
        0 0 0 0 0 0
        0 0 0 0 0 0
        0 0 0 0 0 0
        0 0 0 0 0 0
        0 0 0 0 0 0
        0 0 0 0 0 0
        0 0 0 0 0 0
        0 0 0 0 0 0
        0 0 0 0 0 0
        0 0 0 0 0 0
        0 0 0 0 0 0
        0 0 0 0 0 0
        0 0 0 0 0 0
        0 0 0 0 0 0
        0 0 0 0 0 0
        0 0 0 0 0 0
        0 0 0 0 0 0
        0 0 0 0 0 0
        0 0 0 0 0 0
        0 0 0 0 0 0
        0 0 0 0 0 0
        0 0 0 0 0 0
        0 0 0 0 0 0
        0 0 0 0 0 0
        0 0 0 0 0 0
        0 0 0 0 0 0
        0 0 0 0 0 0
        0 0 0 0 0 0
        0 0 0 0 0 0
        0 0 0 0 0 0
        0 0 0 0 0 0
        0 0 0 0 0 0
        0 0 0 0 0 0
        0 0 0 0 0 0
        0 0 0 0 0 0
        0 0 0 0 0 0
        0 0 0 0 0 0
        0 0 0 0 0 0
        0 0 0 0 0 0
        0 0 0 0 0 0
        0 0 0 0 0 0
        0 0 0 0 0 0
        0 0 0 0 0 0
        0 0 0 0 0 0
        0 0 0 0 0 0
        0 0 0 0 0 0
        0 0 0 0 0 0
        0 0 0 0 0 0
        0 0 0 0 0 0
        0 0 0 0 0 0
        0 0 0 0 0 0
        0 0 0 0 0 0
        0 0 0 0 0 0
        0 0 0 0 0 0
        0 0 0 0 0 0
        0 0 0 0 0 0
        0 0 0 0 0 0
        0 0 0 0 0 0
        0 0 0 0 0 0
        0 0 0 0 0 0
        0 0 0 0 0 0
        0 0 0 0 0 0
        0 0 0 0 0 0
        0 0 0 0 0 0
        0 0 0 0 0 0
        0 0 0 0 0 0
        0 0 0 0 0 0
        0 0 0 0 0 0
        0 0 0 0 0 0
        0 0 0 0 0 0
        0 0 0 0 0 0
        0 0 0 0 0 0
        0 0 0 0 0 0
        0 0 0 0 0 0
        0 0 0 0 0 0
        0 0 0 0 0 0
        0 0 0 0 0 0
        0 0 0 0 0 0
        0 0 0 0 0 0
        0 0 0 0 0 0
        0 0 0 0 0 0
        0 0 0 0 0 0
        0 0 0 0 0 0
        0 0 0 0 0 0
        0 0 0 0 0 0
        0 0 0 0 0 0
        0 0 0 0 0 0
        0 0 0 0 0 0
        0 0 0 0 0 0
        0 0 0 0 0 0
        0 0 0 0 0 0
        0 0 0 0 0 0
        0 0 0 0 0 0
        0 0 0 0 0 0
        0 0 0 0 0 0
        0 0 0 0 0 0
        0 0 0 0 0 0
        0 0 0 0 0 0
        0 0 0 0 0 0
        0 0 0 0 0 0
        0 0 0 0 0 0
        0 0 0 0 0 0
        0 0 0 0 0 0
        0 0 0 0 0 0
        0 0 0 0 0 0
        0 0 0 0 0 0
        0 0 0 0 0 0
        0 0 0 0 0 0
        0 0 0 0 0 0
      </DataArray>
      <DataArray type="Float32" Name="Amplitude" format="ascii" RangeMin="-76.010971069" RangeMax="0">
        -42.422401428 -42.04309845 -41.420898438 -40.429218292 -40.324260712 -40.2849617
        -39.847270966 -40.166130066 -40.144989014 -40.912399292 -41.986408234 -43.175880432
        -44.142368317 -45.275260925 -42.80134964 -39.753398895 -43.450180054 -49.573120117
        -47.475208282 -45.928161621 -44.900230408 -44.176158905 -43.885829926 -42.451580048
        -42.687858582 -42.400180817 -42.171070099 -42.487918854 -42.990661621 -43.44411087
        -42.625400543 -41.840881348 -41.475658417 -41.022411346 -40.959461212 -40.88053894
        -41.045349121 -41.302661896 -42.003349304 -42.813430786 -44.604858398 -47.245658875
        -41.881469727 -35.128269196 -36.092681885 -41.466770172 -43.386009216 -42.696540833
        -41.811859131 -40.940158844 -40.297138214 -39.723388672 -39.344230652 -39.71987915
        -39.431491852 -39.570171356 -40.216041565 -40.582630157 -41.310909271 -41.893100739
        -40.746109009 -40.343959808 -39.885948181 -38.959968567 -38.89756012 -38.832370758
        -38.830890656 -39.144081116 -39.296009064 -39.912559509 -40.710411072 -41.248710632
        -40.856391907 -38.477230072 -32.968601227 -32.715770721 -41.020320892 -45.398281097
        -42.465309143 -41.130821228 -40.336898804 -41.679771423 -41.464710236 -41.625980377
        -41.68844986 -41.848320007 -43.228351593 -43.85326004 -44.577320099 -45.619361877
        -44.124469757 -43.081420898 -42.538730621 -41.811439514 -41.451290131 -40.726741791
        -40.787590027 -40.822330475 -40.57321167 -41.205581665 -42.874858856 -45.505779266
        -39.095180511 -30.699550629 -30.537479401 -34.662998199 -36.606098175 -37.283588409
        -37.815818787 -38.451599121 -38.662418365 -38.609069824 -38.308769226 -38.461730957
        -38.262649536 -38.582290649 -38.962581635 -39.584159851 -40.179168701 -40.565139771
        -39.703979492 -39.288478851 -39.020759583 -38.677539825 -38.423500061 -37.778800964
        -38.215881348 -38.854568481 -38.068050385 -35.044319153 -32.737468719 -31.53745079
        -30.369760513 -29.61782074 -29.107660294 -30.608959198 -40.290988922 -43.821090698
        -42.165748596 -39.813411713 -39.862449646 -39.83480072 -39.479179382 -40.006580353
        -40.251529694 -40.738689423 -41.315448761 -42.125431061 -43.109348297 -43.744380951
        -42.209320068 -41.280639648 -40.481311798 -39.805198669 -39.733009338 -39.579669952
        -38.489208221 -38.772609711 -38.442089081 -39.974910736 -40.670520782 -43.292289734
        -43.566829681 -34.264030457 -28.802919388 -28.019239426 -28.447910309 -29.467269897
        -31.361410141 -34.52463913 -38.93970871 -41.017799377 -38.67124939 -37.434768677
        -37.312149048 -37.521148682 -38.045589447 -38.52312088 -39.182109833 -39.684970856
        -39.018871307 -38.723400116 -38.362171173 -37.966098785 -37.717529297 -37.613189697
        -39.789279938 -46.949970245 -48.316120148 -39.581169128 -36.405979156 -34.930290222
        -34.18404007 -34.216331482 -36.709308624 -43.040180206 -44.565139771 -42.993598938
        -40.295448303 -39.94536972 -38.3123703 -38.875518799 -38.546600342 -38.901699066
        -38.950820923 -39.6183815 -40.123020172 -40.904628754 -41.884899139 -42.30134964
        -39.483829498 -39.156181335 -38.546390533 -38.222328186 -37.634140015 -38.103229523
        -38.250991821 -39.500469208 -41.048080444 -41.689548492 -42.701751709 -45.194210052
        -48.192180634 -48.391300201 -44.916950226 -42.548568726 -42.229888916 -42.107749939
        -43.082759857 -46.590999603 -42.599529266 -41.669128418 -41.807659149 -38.158901215
        -37.041591644 -36.96062851 -37.783248901 -38.151729584 -38.714000702 -39.290771484
        -39.021160126 -38.606010437 -38.173931122 -37.216930389 -36.974018097 -38.108470917