<VTKFile type="ImageData" version="0.1" byte_order="LittleEndian">
  <ImageData WholeExtent="0 44 0 42 0 1" Origin="0 0 0" Spacing="1 1 1">
  <Piece Extent="0 44 0 42 0 1">
    <PointData>
    </PointData>
    <CellData Scalars="Amplitude">
      <DataArray type="Float32" Name="Amplitude" format="ascii" RangeMin="-87.012306213" RangeMax="-26.743530273">
        -56.610450745 -57.187011719 -58.212799072 -59.90750885 -54.786510468 -48.615131378
        -44.13343811 -41.192668915 -39.868438721 -39.892520905 -41.100990295 -43.673530579
        -46.951660156 -47.707988739 -45.870059967 -44.43901062 -43.144340515 -42.34072113
        -41.692470551 -41.274669647 -40.83454895 -40.558010101 -40.243839264 -40.032829285
        -39.833148956 -39.773609161 -39.917560577 -40.37171936 -41.223670959 -43.48154068
        -49.662250519 -49.575378418 -37.791301727 -31.937210083 -28.942630768 -28.043279648
        -28.4771595 -30.542430878 -35.146560669 -43.801071167 -48.379360199 -42.22674942
        -40.075439453 -39.089828491 -59.006320953 -60.639919281 -60.610549927 -61.904281616
        -55.885009766 -49.910308838 -45.518989563 -42.009548187 -39.853111267 -38.882270813
        -39.005199432 -40.357318878 -43.213760376 -46.930789948 -47.609340668 -45.929710388
        -44.182598114 -42.793781281 -42.157600403 -41.372360229 -41.195640564 -40.792438507
        -40.520339966 -40.242210388 -40.052921295 -39.900661469 -39.935699463 -40.143478394
        -40.703811646 -41.756938934 -44.613048553 -54.366390228 -45.346740723 -36.060050964
        -31.006650925 -28.56167984 -27.955989838 -28.772390366 -31.495149612 -37.14427948
        -47.000408173 -45.343990326 -40.904911041 -39.128868103 -58.809768677 -60.881500244
        -63.261089325 -58.287830353 -52.476509094 -47.192710876 -43.231620789 -40.664421082
        -39.254878998 -39.047271729 -40.125110626 -42.488948822 -46.565109253 -50.529689789
        -49.99533844 -46.109729767 -44.660820007 -43.46818924 -42.389198303 -41.583770752
        -41.544250488 -41.382770538 -41.08921814 -40.740768433 -40.376720428 -40.257728577
        -40.304489136 -40.152679443 -41.00561142 -43.123710632 -49.403850555 -49.292480469
        -37.492290497 -31.528190613 -28.717399597 -27.847089767 -28.298900604 -30.440849304
        -35.112979889 -43.618419647 -48.355010986 -42.26227951 -40.214630127 -39.435031891
        -57.274551392 -59.365550995 -61.941360474 -61.178890228 -54.777999878 -49.526130676
        -46.249351501 -43.19393158 -40.691188812 -39.527469635 -39.386440277 -40.392490387
        -42.940219879 -46.65032959 -49.419559479 -49.185840607 -47.636749268 -44.97441864
        -43.365180969 -42.247951508 -41.924369812 -41.626911163 -41.082698822 -40.671051025
        -40.399940491 -40.207870483 -40.060050964 -40.13299942 -40.477199554 -41.708808899
        -44.955669403 -56.277698517 -44.256408691 -35.322048187 -30.399049759 -28.09485054
        -27.507799149 -28.314529419 -31.106679916 -36.839530945 -47.147041321 -47.315990448
        -41.68062973 -40.436958313 -61.74148941 -58.628730774 -60.327041626 -59.802711487
        -53.905609131 -48.028530121 -43.739120483 -41.209209442 -39.777740479 -39.663108826
        -40.787651062 -43.31293869 -46.711181641 -48.121429443 -46.750980377 -45.185398102
        -43.735748291 -43.026180267 -42.302619934 -41.621189117 -41.0483284 -40.703918457
        -40.268550873 -39.898368835 -39.669788361 -39.511268616 -39.522468567 -39.991920471
        -41.041481018 -43.346130371 -50.642349243 -48.019981384 -36.745609283 -30.972829819
        -28.334669113 -27.578540802 -28.026489258 -30.301950455 -35.273891449 -44.954101562
        -49.140529633 -42.263599396 -40.150131226 -39.295021057 -63.247509003 -66.366409302
        -67.472831726 -62.160179138 -57.429439545 -50.863090515 -46.769641876 -43.312389374
        -40.828399658 -39.729610443 -39.663921356 -40.089511871 -43.434848785 -47.584949493
        -48.826301575 -47.386470795 -45.56967926 -44.481201172 -43.490180969 -42.761558533
        -42.180728912 -41.550109863 -41.070529938 -40.717430115 -40.241981506 -39.983001709
        -39.795570374 -39.813800812 -40.281658173 -41.515541077 -44.564048767 -55.376029968
        -43.785339355 -34.839969635 -29.984840393 -27.795219421 -27.333900452 -28.193359375
        -31.192869186 -37.132709503 -49.198120117 -47.683139801 -42.134830475 -40.23871994
        -59.64881897 -60.788379669 -63.168891907 -55.792648315 -49.960788727 -46.989780426
        -43.174171448 -40.199459076 -39.057048798 -39.269870758 -39.781860352 -42.734920502
        -45.964439392 -50.765090942 -49.020839691 -47.945869446 -46.679279327 -45.114330292
        -45.39151001 -44.60459137 -43.940441132 -43.123001099 -42.683490753 -42.103450775
        -41.58272934 -40.831291199 -41.033390045 -41.493808746 -42.485839844 -44.684459686
        -53.628620148 -45.546459198 -35.853019714 -30.455909729 -27.942810059 -27.26804924
        -27.839370728 -30.188520432 -35.132240295 -44.450649261 -52.272201538 -44.433818817
        -41.996810913 -41.033958435 -65.836036682 -66.525222778 -66.42250061 -63.22869873
        -57.349971771 -50.422210693 -45.815040588 -42.465690613 -39.911560059 -39.270908356
        -38.809909821 -39.818691254 -42.29088974 -46.131130219 -49.892429352 -53.705039978
        -51.544319153 -50.922969818 -48.374710083 -46.901298523 -46.290740967 -45.206451416
        -44.287769318 -43.235851288 -42.169891357 -41.137741089 -40.946891785 -41.2566185
        -41.890590668 -43.109828949 -46.37582016 -60.347511292 -41.759601593 -33.930751801
        -29.448419571 -27.467260361 -27.09485054 -28.053239822 -31.051439285 -36.964820862
        -47.871318817 -50.655830383 -43.648281097 -41.853790283 -87.012306213 -65.991210938
        -62.573139191 -56.878879547 -51.640830994 -46.837379456 -43.080249786 -40.518878937
        -39.175769806 -38.95582962 -39.829208374 -41.822689056 -45.032600403 -48.660381317
        -50.482089996 -50.08826828 -48.556030273 -47.575431824 -48.505180359 -47.755870819
        -46.687168121 -45.771648407 -44.830699921 -43.882640839 -42.489830017 -42.043720245
        -42.118309021 -42.569080353 -43.888500214 -47.319450378 -59.563480377 -42.978660583
        -34.632259369 -29.588479996 -27.320709229 -26.743530273 -27.351230621 -29.808059692
        -34.933261871 -44.189651489 -52.602291107 -44.14799118 -41.622161865 -40.839008331
        -69.682609558 -61.690189362 -56.23374176 -57.885601044 -53.734771729 -50.567569733
        -45.515888214 -42.572620392 -40.463989258 -39.353721619 -39.033931732 -39.961700439
        -42.044120789 -44.996910095 -48.938438416 -52.195259094 -54.114971161 -56.647029877
        -55.411888123 -55.361110687 -52.021900177 -50.618209839 -48.516521454 -46.600891113
        -46.143909454 -45.132301331 -43.633769989 -44.178661346 -44.734119415 -46.585029602
        -53.382030487 -51.560821533 -39.597068787 -32.921161652 -28.827590942 -27.047149658
        -26.750329971 -27.682390213 -30.722009659 -36.559310913 -47.068778992 -50.358921051
        -44.441898346 -42.024711609 -58.673049927 -54.742271423 -57.010990143 -55.21900177
        -49.739429474 -45.902938843 -43.506191254 -41.574981689 -40.089920044 -39.533409119
        -40.066768646 -41.41947937 -43.867359161 -46.878929138 -49.833259583 -50.738998413
        -51.490840912 -52.255970001 -52.478141785 -52.240570068 -51.199630737 -49.699710846
        -49.131088257 -49.24174881 -47.311740875 -46.514190674 -46.070598602 -47.065231323
        -48.810970306 -55.637889862 -51.60105896 -40.661140442 -34.088420868 -29.569999695
        -27.564910889 -27.062080383 -27.644109726 -29.99887085 -34.873809814 -44.028591156
        -53.377189636 -44.158081055 -41.380908966 -40.459098816 -54.457950592 -52.558490753
        -53.648239136 -56.190109253 -55.853199005 -49.464511871 -45.189441681 -42.936038971
        -41.365528107 -40.851661682 -40.666130066 -41.349651337 -42.97977829 -44.763179779
        -46.592571259 -47.308620453 -47.024410248 -46.809158325 -47.464828491 -47.66753006
        -47.919269562 -48.535190582 -48.911281586 -48.862041473 -48.629501343 -48.01166153
        -48.050029755 -48.748920441 -49.171699524 -51.956489563 -51.782920837 -44.036449432
        -37.777709961 -32.796379089 -29.366910934 -27.874740601 -27.545049667 -28.259670258
        -30.844930649 -36.072090149 -45.686229706 -52.132099152 -44.066749573 -41.611011505
        -63.620861053 -71.897003174 -60.373569489 -52.754138947 -50.976379395 -45.890029907
        -42.656261444 -41.431400299 -40.916530609 -41.300460815 -42.049251556 -43.450489044
        -45.696048737 -47.288200378 -47.188899994 -46.427780151 -45.467578888 -44.874248505
        -44.100189209 -44.470329285 -44.649421692 -45.05796814 -45.917339325 -46.051071167
        -46.123649597 -46.626628876 -46.748790741 -47.429889679 -48.457118988 -46.319278717
        -42.44355011 -37.83026886 -33.50592041 -30.417430878 -28.866399765 -28.350809097
        -28.66904068 -30.37953949 -34.093730927 -41.750358582 -56.161128998 -45.840839386
        -42.43378067 -41.256519318 -56.63999939 -60.750228882 -66.425567627 -58.5766716
        -51.719940186 -46.187671661 -43.068130493 -41.217411041 -40.565391541 -40.285308838
        -40.554840088 -42.031101227 -43.571880341 -46.50112915 -48.008758545 -46.006240845
        -44.328231812 -44.161979675 -42.899539948 -43.429298401 -43.228050232 -43.347019196
        -43.408691406 -43.484390259 -43.445808411 -43.666931152 -44.039840698 -44.684619904
        -44.962169647 -44.642749786 -42.44562912 -38.983310699 -35.679439545 -32.654640198
        -30.562929153 -29.387140274 -29.066810608 -29.496709824 -31.18914032 -35.029911041
        -42.923950195 -55.77602005 -45.539230347 -42.632350922 -59.984710693 -69.848258972
        -58.516288757 -51.470558167 -46.049648285 -42.289169312 -41.04045105 -40.461238861
        -39.929981232 -39.263179779 -39.720588684 -41.983951569 -46.369670868 -49.118759155
        -47.390060425 -45.119838715 -42.705978394 -42.032218933 -41.764678955 -42.089389801
        -42.674560547 -42.742641449 -42.84569931 -42.887958527 -43.173351288 -43.252838135
        -43.504020691 -43.913520813 -43.60477829 -42.581821442 -40.097610474 -36.539749146
        -33.462089539 -31.385810852 -30.2710495 -29.846389771 -29.999879837 -31.103700638
        -33.961578369 -40.471359253 -55.282531738 -46.943008423 -43.10969162 -41.730430603
        -55.567741394 -58.818531036 -55.951000214 -60.67993927 -54.947319031 -44.674880981
        -40.605430603 -39.137699127 -38.535289764 -38.35062027 -38.785831451 -39.178710938
        -41.886600494 -45.679450989 -50.202911377 -48.169589996 -45.354400635 -44.272579193
        -43.349441528 -42.614059448 -42.184631348 -42.108940125 -42.542709351 -42.699989319
        -42.592151642 -42.909290314 -42.524898529 -43.148410797 -43.121299744 -43.406589508
        -42.598831177 -39.354850769 -35.716930389 -32.878688812 -31.271999359 -30.408880234
        -30.169240952 -30.492359161 -31.814029694 -35.338130951 -42.871341705 -55.716350555
        -46.165119171 -43.089309692 -55.057621002 -60.936199188 -56.971359253 -48.713890076
        -43.653320312 -40.412891388 -38.567298889 -37.226890564 -36.661220551 -36.399929047
        -37.058189392 -38.833000183 -42.565101624 -48.774230957 -52.225658417 -48.602550507
        -45.964801788 -44.886379242 -43.509601593 -44.071708679 -44.012580872 -43.673168182
        -43.928390503 -43.607189178 -43.67168045 -43.95141983 -44.100318909 -44.261100769
        -44.944461823 -44.556121826 -41.630298615 -37.248088837 -33.560340881 -31.707710266
        -30.923139572 -30.628429413 -30.767599106 -31.75153923 -34.563041687 -40.923789978
        -54.618610382 -47.919399261 -43.948379517 -42.249450684 -46.43680954 -47.909519196
        -50.961261749 -60.08821106 -54.293498993 -44.884990692 -40.681491852 -38.625938416
        -37.587211609 -36.95734024 -36.828330994 -37.366268158 -39.466369629 -44.41791153
        -54.684368134 -53.50661087 -48.077659607 -45.880039215 -44.900970459 -44.451339722
        -44.529949188 -44.50246048 -44.413608551 -44.625740051 -44.408550262 -44.452289581
        -44.526279449 -44.835208893 -45.267139435 -45.88053894 -44.816890717 -40.960300446
        -36.282001495 -32.913959503 -31.417520523 -30.861570358 -30.711370468 -31.035139084
        -32.278469086 -35.94247818 -43.764690399 -55.267700195 -47.798080444 -44.634128571
        -49.037200928 -51.665248871 -63.070610046 -52.084400177 -44.814151764 -40.240608215
        -37.936599731 -36.825660706 -36.254730225 -36.116409302 -36.580970764 -38.325630188
        -42.768138885 -50.765930176 -58.089038849 -50.289680481 -47.113319397 -46.34336853
        -45.773139954 -45.420280457 -45.608329773 -45.886341095 -45.65776062 -45.476600647
        -45.518829346 -45.745361328 -46.005531311 -46.825790405 -47.817268372 -47.927360535
        -43.451919556 -38.158279419 -33.888469696 -31.983110428 -31.190450668 -31.041000366
        -31.214080811 -32.186901093 -34.996330261 -41.481521606 -54.074169159 -49.593719482
        -45.228221893 -43.701660156 -46.373149872 -47.936561584 -51.306308746 -62.054981232
        -50.410118103 -42.692119598 -38.882759094 -36.934928894 -36.200668335 -35.563518524
        -35.562561035 -36.335800171 -38.469718933 -42.967178345 -51.51707077 -55.725460052
        -50.317710876 -47.742721558 -46.545749664 -46.022468567 -45.882278442 -46.57698822
        -46.373989105 -46.307781219 -46.338199615 -45.777599335 -45.973690033 -45.85559082
        -46.860561371 -48.216838837 -49.124118805 -43.307739258 -37.290988922 -33.345169067
        -31.894899368 -31.319900513 -31.224409103 -31.593730927 -32.928180695 -36.906269073
        -44.592578888 -56.620540619 -48.283050537 -44.936149597 -52.143089294 -62.807998657
        -56.494560242 -46.563251495 -42.1002388 -38.080360413 -35.998638153 -34.975879669
        -34.468490601 -34.405338287 -35.145401001 -36.85931015 -40.632579803 -46.464958191
        -52.70401001 -52.833740234 -50.354610443 -48.734619141 -48.213630676 -47.8813591
        -47.369800568 -46.854831696 -46.479278564 -46.133758545 -45.508338928 -45.422481537
        -45.555931091 -46.327350616 -48.588100433 -53.354728699 -46.724559784 -39.050720215
        -34.276649475 -32.38999176 -31.699720383 -31.513109207 -31.740650177 -32.892181396
        -36.217430115 -43.69947052 -55.464500427 -47.560489655 -44.386520386 -42.879310608
        -50.556640625 -54.252830505 -67.316253662 -53.751739502 -44.644020081 -39.431331635
        -36.431739807 -34.943161011 -34.228469849 -33.951698303 -34.121398926 -34.969970703
        -37.188789368 -41.214118958 -47.45098877 -53.231941223 -52.186729431 -49.578140259
        -48.556018829 -47.840530396 -47.392189026 -47.180099487 -46.948448181 -46.148460388
        -45.826141357 -45.149490356 -45.151081085 -45.478088379 -46.455528259 -49.399990082
        -54.045780182 -44.882259369 -37.63904953 -33.744060516 -32.229370117 -31.708740234
        -31.644220352 -32.055740356 -33.582359314 -37.947650909 -46.843639374 -54.16545105
        -46.665119171 -44.07144928 -52.495330811 -61.185451508 -55.207920074 -45.353778839
        -39.780960083 -36.459838867 -34.781349182 -34.073040009 -33.775390625 -33.938251495
        -34.752868652 -36.771621704 -40.564128876 -46.578178406 -52.725078583 -51.768909454
        -49.279140472 -48.141899109 -46.821578979 -46.706859589 -46.676239014 -46.211410522
        -45.832481384 -45.351791382 -45.026679993 -44.895629883 -44.985309601 -45.982601166
        -48.372119904 -55.351131439 -47.338150024 -39.074951172 -34.527648926 -32.591770172
        -31.935440063 -31.82336998 -32.038719177 -33.277549744 -36.909141541 -44.859031677
        -55.596420288 -47.035251617 -44.161029816 -42.835178375 -46.23033905 -48.2771492
        -53.277099609 -62.0795784 -48.844760895 -40.982841492 -37.309860229 -35.351100922
        -34.156070709 -34.175788879 -34.37279892 -35.246639252 -37.505390167 -42.502559662
        -49.128120422 -50.89773941 -47.957458496 -46.273109436 -46.032550812 -45.499248505
        -45.498260498 -45.616649628 -45.191150665 -44.983200073 -44.723079681 -45.360298157
        -45.398509979 -45.250640869 -46.845470428 -48.68944931 -53.738201141 -44.171199799
        -37.738079071 -33.818958282 -32.334369659 -31.989070892 -31.812360764 -32.257511139
        -34.093219757 -38.889278412 -48.373920441 -53.011451721 -46.160739899 -43.769989014
        -44.749580383 -48.152328491 -59.239601135 -49.301151276 -41.68927002 -37.623058319
        -35.709709167 -34.897220612 -34.503890991 -34.681461334 -35.830280304 -38.264530182
        -42.789909363 -51.771598816 -52.817279816 -48.74779892 -46.954280853 -45.792098999
        -45.29888916 -45.332130432 -45.659450531 -45.711540222 -45.62430954 -45.557159424
        -44.922588348 -45.384449005 -45.724040985 -46.722488403 -49.519618988 -56.766819
        -46.790050507 -38.917480469 -34.471759796 -32.745418549 -32.143909454 -31.998540878
        -32.315860748 -33.612041473 -37.443149567 -45.675731659 -56.40222168 -48.43611145
        -45.479480743 -44.220790863 -43.204490662 -44.953018188 -48.053901672 -59.893081665
        -49.209190369 -40.871311188 -37.190200806 -35.505329132 -34.822498322 -34.678958893
        -35.051338196 -36.247341156 -39.239959717 -45.306789398 -51.242328644 -50.311840057
        -46.99930954 -45.535949707 -44.909049988 -44.715339661 -44.668289185 -45.205680847
        -45.090320587 -45.01404953 -45.000801086 -44.742668152 -44.918418884 -45.453338623
        -46.649650574 -50.214378357 -56.391281128 -44.637481689 -37.483829498 -33.870059967
        -32.638439178 -32.146308899 -32.08411026 -32.613830566 -34.574661255 -39.865421295
        -50.471488953 -52.00043869 -47.301528931 -44.98443985 -44.382190704 -47.547458649
        -57.221420288 -50.558380127 -41.597000122 -37.183891296 -35.168891907 -34.842170715
        -34.655059814 -35.007270813 -36.265209198 -38.124858856 -44.107540131 -54.43447113
        -50.028430939 -46.799991608 -45.25730896 -44.888889313 -44.691398621 -44.773601532
        -44.774940491 -44.326519012 -44.435329437 -44.228130341 -44.870010376 -44.862388611
        -44.899158478 -45.986541748 -49.281730652 -58.867961884 -47.190181732 -38.885738373
        -34.522579193 -32.916118622 -32.386398315 -32.296440125 -32.621231079 -34.015979767
        -38.304798126 -47.054351807 -56.00838089 -47.373878479 -44.508789062 -44.041980743
        -42.818981171 -44.1664505 -47.512321472 -60.312698364 -48.990810394 -40.78963089
        -37.216499329 -35.487678528 -34.932739258 -34.852508545 -35.364040375 -36.687988281
        -40.065250397 -46.810241699 -55.174739838 -48.711959839 -45.921508789 -44.335330963
        -44.181278229 -44.105270386 -44.170749664 -44.055961609 -44.032180786 -44.321239471
        -44.160858154 -44.399261475 -44.532810211 -44.833171844 -46.435440063 -50.449699402
        -59.591560364 -44.545368195 -37.35036087 -33.983139038 -32.741790771 -32.336818695
        -32.219749451 -32.798191071 -34.825229645 -40.156169891 -50.846408844 -52.667480469
        -46.765911102 -44.757858276 -43.772468567 -47.800548553 -57.468238831 -48.848049164
        -41.509170532 -37.514389038 -35.143310547 -34.698169708 -34.973949432 -35.50220108
        -36.79291153 -39.737018585 -46.439548492 -55.954769135 -48.936340332 -45.593811035
        -44.692050934 -43.986480713 -43.822639465 -43.791728973 -43.902980804 -43.745079041
        -43.774791718 -43.609500885 -43.594890594 -43.737689972 -44.18793869 -45.978660583
        -49.529079437 -64.415756226 -46.876209259 -38.760028839 -34.438278198 -32.920120239
        -32.403888702 -32.462818146 -32.733020782 -34.310649872 -38.847759247 -48.832271576
        -55.810749054 -47.708679199 -45.29888916 -43.966110229 -42.347099304 -45.108848572
        -47.224838257 -57.65650177 -48.956619263 -40.805358887 -37.26002121 -35.822818756
        -35.297481537 -35.290409088 -35.904239655 -37.480659485 -40.800270081 -49.366390228
        -53.313438416 -47.224979401 -44.694190979 -43.515319824 -43.318161011 -43.136039734
        -43.318599701 -43.376491547 -43.308971405 -43.612831116 -43.649089813 -43.823810577
        -43.882549286 -44.523860931 -45.579891205 -49.553600311 -62.873638153 -43.676040649
        -36.867778778 -33.728050232 -32.607368469 -32.243919373 -32.265209198 -32.845809937
        -35.058898926 -40.890060425 -52.784099579 -52.135650635 -46.901611328 -44.613460541
        -48.41519165 -54.740039825 -57.306381226 -44.740848541 -38.977870941 -35.977058411
        -34.865951538 -34.718231201 -34.521179199 -35.057159424 -36.541778564 -39.53812027
        -45.827411652 -54.048698425 -49.629188538 -46.246101379 -44.550109863 -43.947490692
        -43.447078705 -43.7709198 -43.739879608 -43.746200562 -43.589870453 -43.545181274
        -43.4233284 -43.641269684 -44.255111694 -45.351131439 -48.831428528 -60.586750031
        -45.943328857 -38.040630341 -34.167098999 -32.841239929 -32.453689575 -32.407958984
        -32.873180389 -34.656211853 -39.826480865 -51.822219849 -52.939029694 -46.385791779
        -44.195838928 -43.319778442 -42.286281586 -43.79693985 -48.381828308 -57.130199432
        -46.081878662 -39.337551117 -37.223968506 -36.005050659 -35.435768127 -35.896789551
        -36.183368683 -38.540721893 -42.916000366 -54.79655838 -51.421871185 -47.563869476
        -45.106788635 -43.202709198 -42.933479309 -43.134628296 -43.372039795 -43.356468201
        -43.349960327 -43.463920593 -43.277481079 -43.432998657 -43.531978607 -44.243099213
        -45.922100067 -49.956020355 -57.326820374 -42.839611053 -36.186580658 -33.411720276
        -32.468021393 -32.203250885 -32.258220673 -32.942100525 -35.450901031 -41.93429184
        -56.711170197 -51.812889099 -45.825248718 -43.939441681 -47.874988556 -53.165901184
        -56.14994812 -45.516090393 -38.973918915 -36.040100098 -34.971248627 -34.732509613
        -35.217460632 -36.105808258 -38.257850647 -41.994171143 -50.798080444 -53.796840668
        -47.121311188 -43.886199951 -43.17142868 -42.562030792 -42.505989075 -42.560188293
        -42.692539215 -42.955921173 -43.077449799 -43.181468964 -43.199401855 -43.524459839
        -44.284778595 -46.082141876 -50.900268555 -59.05022049 -43.446640015 -36.468341827
        -33.209518433 -32.205101013 -31.880739212 -32.031520844 -32.592399597 -34.470909119
        -39.861370087 -51.747951508 -54.77325058 -47.481800079 -45.041099548 -44.196281433
        -42.609031677 -44.042449951 -47.595291138 -54.619968414 -47.884918213 -40.237380981
        -37.219589233 -36.084430695 -35.873218536 -36.090000153 -37.690589905 -40.225730896
        -44.649471283 -57.210449219 -50.629760742 -45.128181458 -43.464149475 -42.4962883
        -42.240001678 -42.854961395 -42.322811127 -42.459300995 -42.495658875 -42.736850739
        -42.922870636 -43.371398926 -43.842639923 -44.723888397 -46.545391083 -54.120189667
        -52.426948547 -40.555839539 -34.822589874 -32.435810089 -31.822320938 -31.679870605
        -31.838100433 -32.606258392 -35.389331818 -42.060760498 -57.754600525 -52.037910461
        -46.650138855 -44.825569153 -46.678890228 -47.625720978 -56.568080902 -46.824451447
        -39.577171326 -37.310230255 -36.094169617 -35.914909363 -36.595481873 -37.961658478
        -40.466281891 -45.512809753 -60.377510071 -50.710399628 -45.56306076 -43.328510284
        -42.368881226 -41.996601105 -42.280929565 -42.044120789 -42.297428131 -42.402481079
        -42.695251465 -42.842529297 -43.153629303 -43.568470001 -44.901641846 -46.892681122
        -53.25851059 -54.20016861 -41.510318756 -35.367538452 -32.453029633 -31.798530579
        -31.790399551 -31.847610474 -32.477638245 -34.609458923 -40.280380249 -52.483970642
        -54.045928955 -47.319839478 -45.122550964 -44.309360504 -42.840919495 -44.436130524
        -49.504798889 -58.413570404 -45.929569244 -37.799751282 -36.767799377 -35.388748169
        -35.310359955 -35.874889374 -37.93283844 -41.445388794 -47.577819824 -65.422523499
        -49.727600098 -45.893550873 -43.922451019 -42.904449463 -41.780010223 -41.573879242
        -41.694988251 -41.729278564 -41.979530334 -42.245811462 -42.419689178 -42.728500366
        -43.60269928 -44.529640198 -46.85546875 -52.539459229 -49.105918884 -39.293178558
        -34.032859802 -32.088558197 -31.599060059 -31.573280334 -31.843240738 -32.784660339
        -35.717201233 -43.052330017 -58.023590088 -51.211849213 -46.83864975 -45.197441101
        -44.069290161 -47.98279953 -55.918579102 -46.596450806 -39.822441101 -36.102279663
        -34.997268677 -34.88394928 -35.580471039 -37.620540619 -40.678020477 -45.917720795
        -59.82131958 -50.718261719 -45.801929474 -43.322689056 -42.168560028 -41.382541656
        -41.163158417 -41.084880829 -41.139789581 -41.131809235 -41.230201721 -41.412258148
        -41.760349274 -42.199649811 -42.865951538 -44.34828949 -46.721809387 -46.646240234
        -40.505508423 -35.123531342 -32.735340118 -31.975809097 -31.828290939 -31.997980118
        -32.722419739 -35.022830963 -41.220588684 -54.455039978 -52.548519135 -47.439380646
        -45.551570892 -44.476459503 -43.140678406 -44.71339035 -48.781410217 -56.736690521
        -45.214820862 -38.700550079 -35.827301025 -34.639610291 -34.444229126 -35.326908112
        -37.300598145 -40.613319397 -46.472831726 -61.15625 -51.356170654 -46.088020325
        -43.560020447 -42.172401428 -41.394809723 -41.048538208 -40.701889038 -40.459751129
        -40.454551697 -40.380741119 -40.57780838 -40.624950409 -40.982391357 -41.359199524
        -42.296360016 -43.399089813 -42.781169891 -38.45236969 -34.516540527 -32.696899414
        -32.040599823 -31.905069351 -32.10723114 -33.10943985 -36.482570648 -43.817279816
        -59.993431091 -51.044639587 -46.89994812 -45.492580414 -44.384361267 -48.0977211
        -50.357860565 -43.145999908 -38.842140198 -35.375389099 -33.46244812 -33.455760956
        -33.953090668 -35.713699341 -38.927848816 -44.002681732 -54.891620636 -54.368228912
        -47.937271118 -44.813671112 -43.447170258 -42.040439606 -41.292198181 -40.583019257
        -40.376720428 -40.141410828 -39.957248688 -39.755519867 -39.797939301 -39.886310577
        -40.210121155 -40.574478149 -40.873931885 -40.606891632 -38.476341248 -35.523719788
        -33.408798218 -32.352458954 -32.05121994 -32.244609833 -33.131458282 -35.832199097
        -42.249420166 -54.000038147 -52.20647049 -47.402210236 -46.007949829 -45.515731812
        -44.543128967 -45.416358948 -50.172031403 -51.045078278 -44.341831207 -37.952888489
        -34.511398315 -32.704189301 -32.341808319 -32.80688858 -34.434631348 -37.016151428
        -43.290828705 -52.318920135 -57.85528183 -48.263511658 -45.278018951 -43.199131012
        -42.43170929 -41.500061035 -41.385799408 -40.734199524 -40.426040649 -40.132801056
        -39.724739075 -39.722728729 -39.520168304 -39.748710632 -39.902011871 -39.878398895
        -39.215229034 -37.38325882 -34.948661804 -33.103561401 -32.136070251 -31.932439804
        -32.54901123 -33.948669434 -37.787250519 -45.65763092 -57.299060822 -49.79983139
        -47.238769531 -46.14730835 -44.319179535 -47.364578247 -51.037799835 -43.406539917
        -37.412338257 -34.450649261 -31.947849274 -31.159700394 -31.362630844 -33.212898254
        -36.594829559 -40.963729858 -47.698139191 -59.378650665 -49.81193924 -46.114379883
        -44.18283844 -43.139831543 -42.503868103 -41.917251587 -41.501789093 -41.08449173
        -40.58121109 -40.418598175 -40.049041748 -39.784759521 -39.723838806 -39.698860168
        -39.626968384 -39.376998901 -37.831409454 -35.536151886 -33.246448517 -32.006938934
        -31.71446991 -32.139141083 -33.721870422 -37.488639832 -44.141220093 -54.333831787
        -51.096389771 -47.908649445 -46.14025116 -46.089969635 -44.211219788 -45.468589783
        -47.848651886 -49.32144928 -41.371471405 -37.50112915 -33.252040863 -30.767400742
        -30.57036972 -30.19631958 -32.489891052 -35.929340363 -42.002159119 -50.070159912
        -54.879821777 -49.297180176 -46.775821686 -45.025028229 -44.072299957 -43.304161072
        -42.947151184 -42.631141663 -42.300151825 -41.771579742 -41.295700073 -41.330680847
        -40.721889496 -40.611251831 -40.8957901 -41.206008911 -40.520488739 -38.298828125
        -35.086490631 -32.582489014 -31.560079575 -31.3979702 -32.216918945 -35.071071625
        -40.090450287 -47.582988739 -52.764930725 -49.35105896 -47.560600281 -45.359649658
      </DataArray>
    </CellData>
  </Piece>
  </ImageData>
</VTKFile>
