<VTKFile type="ImageData" version="0.1" byte_order="LittleEndian">
  <ImageData WholeExtent="0 4 0 2 0 2" Origin="0 0 0" Spacing="1 1 1">
  <Piece Extent="0 4 0 2 0 2">
    <PointData Scalars="RTData">
      <DataArray type="Float32" Name="RTData" format="ascii" RangeMin="1.0061702728" RangeMax="256">
        256 225.19523621 154.75602722 83.645256042 36.267299652 154.82385254
        135.80871582 93.058486938 50.229885101 21.847005844 34.601200104 29.704639435
        20.113079071 11.153500557 5.5179929733 155.54290771 136.527771 93.777542114
        50.948940277 22.566059113 93.845367432 81.981018066 56.025005341 30.350399017
        13.488616943 20.899959564 17.59895134 11.75469017 6.6226849556 3.5578818321
        35.050800323 30.154237747 20.562679291 11.603100777 5.9675927162 20.630506516
        17.329498291 11.485236168 6.3532309532 3.2884278297 4.301492691 2.9112250805
        1.5545015335 1.0061702728 1.0198892355
      </DataArray>
    </PointData>
    <CellData>
    </CellData>
  </Piece>
  </ImageData>
</VTKFile>
