<VTKFile type="ImageData" version="0.1" byte_order="LittleEndian">
  <ImageData WholeExtent="0 1 0 1 0 1" Origin="0 0 0" Spacing="1 1 1">
  <Piece Extent="0 1 0 1 0 1">
    <PointData Scalars="Amplitude">
      <DataArray type="Float32" Name="Amplitude" format="ascii" RangeMin="4.3839039803" RangeMax="260">
        260 42.558605194 57.295066833 30.503164291
	31.175806046 4.3839039803 19.12036705 18.130067825
      </DataArray>
      <DataArray type="Float32" Name="Phase" format="ascii" RangeMin="4.3839039803" RangeMax="260">
        19.0 42.558605194 0.0 0.0
	0.0 0.0 19.12036705 0.0
      </DataArray>
    </PointData>
    <CellData>
    </CellData>
  </Piece>
  </ImageData>
</VTKFile>
