<VTKFile type="ImageData" version="0.1" byte_order="LittleEndian">
  <ImageData WholeExtent="0 32 0 32 0 2" Origin="0 0 0" Spacing="1 1 1">
  <Piece Extent="0 32 0 32 0 2">
    <PointData Scalars="Amplitude">
      <DataArray type="Float32" Name="Amplitude" format="ascii" RangeMin="-54.976421356" RangeMax="-34.139572144">
        -53.112960815 -52.994117737 -52.530975342 -52.024864197 -51.413063049 -50.011066437
        -48.463310242 -47.00579834 -45.275177002 -43.872314453 -43.015609741 -42.398433685
        -41.855796814 -41.381469727 -41.018508911 -40.776565552 -40.484321594 -40.25567627
        -40.139396667 -40.12538147 -40.255981445 -40.484828949 -40.737224579 -40.972419739
        -41.261688232 -41.602478027 -41.973976135 -42.386581421 -42.892066956 -43.386665344
        -43.872543335 -44.341159821 -44.547389984 -48.633865356 -48.452857971 -48.033172607
        -47.573768616 -47.106788635 -46.21320343 -45.197956085 -44.366493225 -43.367893219
        -42.482902527 -41.778869629 -41.138282776 -40.639785767 -40.267456055 -40.029510498
        -39.922492981 -39.860416412 -39.902236938 -39.997383118 -40.09412384 -40.325813293
        -40.709182739 -41.248695374 -41.997310638 -43.021015167 -44.215419769 -45.369544983
        -46.416202545 -47.395118713 -47.868095398 -48.215484619 -48.746898651 -48.92509079
        -49.179985046 -48.996055603 -48.483737946 -47.648132324 -46.600334167 -45.216751099
        -43.605026245 -42.062240601 -40.636737823 -39.67918396 -39.159172058 -38.767692566
        -38.506858826 -38.323673248 -38.216487885 -38.15473175 -38.127090454 -38.228221893
        -38.368980408 -38.552894592 -38.956703186 -39.695526123 -40.658462524 -41.606307983
        -42.615509033 -43.801837921 -44.965068817 -46.059646606 -47.073814392 -47.57006073
        -47.978023529 -48.508766174 -48.659469604 -48.804569244 -48.627300262 -48.118671417
        -47.316268921 -46.185165405 -44.770599365 -43.272281647 -41.835906982 -40.506633759
        -39.283485413 -38.184867859 -37.355224609 -36.879844666 -36.592887878 -36.426841736
        -36.269115448 -36.099468231 -35.977275848 -35.866653442 -35.867553711 -36.021209717
        -36.347251892 -36.85458374 -37.8344841 -39.462806702 -41.399787903 -43.329093933
        -45.09954834 -46.625072479 -47.850841522 -48.862167358 -49.653633118 -49.967018127
        -49.886814117 -49.308307648 -48.139785767 -46.676994324 -44.742107391 -42.583312988
        -40.372013092 -38.281242371 -36.916168213 -36.318946838 -35.753082275 -35.250846863
        -35.064689636 -35.013023376 -35.004806519 -35.01638031 -35.040065765 -35.045249939
        -35.06526947 -35.200935364 -35.471878052 -35.834754944 -36.353607178 -37.4986763
        -39.285930634 -41.21087265 -43.070205688 -44.757099152 -46.279800415 -47.519989014
        -48.477104187 -49.330402374 -49.734249115 -49.600082397 -49.092002869 -47.960754395
        -46.487380981 -44.649208069 -42.541519165 -40.357685089 -38.346191406 -36.842277527
        -36.214836121 -36.030944824 -35.765171051 -35.518562317 -35.38804245 -35.269210815
        -35.146896362 -35.023845673 -34.888893127 -34.792182922 -34.730930328 -34.755893707
        -34.883579254 -35.001766205 -35.193454742 -36.264343262 -38.39887619 -40.628513336
        -42.676948547 -44.647861481 -46.615039825 -48.595870972 -50.390701294 -51.243011475
        -49.577339172 -48.253681183 -45.805049896 -43.672550201 -41.785671234 -39.874713898
        -37.87071991 -36.345703125 -35.710124969 -35.711143494 -35.798492432 -35.748596191
        -35.667644501 -35.681461334 -35.738189697 -35.749694824 -35.721065521 -35.700695038
        -35.69380188 -35.686786652 -35.729629517 -35.747398376 -35.57302475 -35.525871277
        -36.513893127 -38.564033508 -40.771045685 -42.813713074 -44.654472351 -46.47385788
        -48.448875427 -50.135147095 -50.829353333 -49.453975677 -48.132019043 -45.828659058
        -43.915988922 -41.982059479 -39.679336548 -37.296108246 -35.484653473 -34.931522369
        -35.597503662 -36.385738373 -36.749408722 -36.757808685 -36.731254578 -36.757041931
        -36.707351685 -36.580978394 -36.413772583 -36.215766907 -36.033058167 -35.933662415
        -35.805953979 -35.510704041 -35.232563019 -35.266407013 -36.058372498 -37.575828552
        -39.08612442 -40.772907257 -42.9375 -45.701034546 -49.031166077 -50.745643616
        -46.061882019 -44.411697388 -41.470169067 -39.151268005 -37.621582031 -36.293781281
        -35.181499481 -34.918048859 -35.158126831 -35.842025757 -36.605575562 -37.032936096
        -37.19978714 -37.364570618 -37.563331604 -37.671356201 -37.670654297 -37.559539795
        -37.33649826 -37.030014038 -36.728256226 -36.238731384 -35.504081726 -34.620288849
        -34.139572144 -34.811683655 -36.570075989 -38.814090729 -41.054363251 -43.221576691
        -45.760215759 -48.944656372 -50.663085938 -46.102104187 -44.574211121 -41.761226654
        -38.922813416 -36.409721375 -34.866271973 -34.219287872 -34.454654694 -35.254634857
        -36.239093781 -37.079051971 -37.692966461 -38.18598938 -38.541034698 -38.709217072
        -38.759128571 -38.61227417 -38.287200928 -37.921287537 -37.474685669 -37.042930603
        -36.54177475 -35.852176666 -35.032035828 -34.390354156 -34.183479309 -34.564651489
        -35.560527802 -36.929656982 -39.153610229 -42.47088623 -46.462295532 -48.582771301
        -43.710300446 -41.893531799 -38.660381317 -36.319091797 -34.812553406 -34.162361145
        -34.307746887 -34.863952637 -35.666721344 -36.566684723 -37.365539551 -38.013671875
        -38.601539612 -39.132324219 -39.536651611 -39.874671936 -39.920799255 -39.602085114
        -39.162086487 -38.542564392 -37.806999207 -37.069377899 -36.300170898 -35.534034729
        -34.896221161 -34.550167084 -34.493740082 -34.934921265 -36.491680145 -39.10503006
        -42.369796753 -46.318122864 -48.469615936 -43.550994873 -41.80406189 -38.637676239
        -36.361339569 -35.150089264 -34.864963531 -35.180309296 -35.80582428 -36.594036102
        -37.377918243 -38.131843567 -39.015750885 -39.874305725 -40.530384064 -41.050506592
        -41.212142944 -40.95703125 -40.428703308 -39.714256287 -38.893177032 -38.081008911
        -37.312221527 -36.551803589 -35.813632965 -35.164661407 -34.679969788 -34.298595428
        -34.402111053 -35.508991241 -37.756797791 -41.001838684 -45.181842804 -47.536773682
        -43.196647644 -41.45797348 -38.27040863 -35.979686737 -34.854328156 -34.7342453
        -35.203960419 -35.921657562 -36.755859375 -37.557094574 -38.313438416 -39.188640594
        -40.108146667 -40.947425842 -41.759239197 -42.315761566 -42.528728485 -42.291721344
        -41.432144165 -40.304931641 -39.143493652 -38.099990845 -37.307102203 -36.67181015
        -36.096557617 -35.5688591 -35.242736816 -35.289352417 -35.990257263 -37.887290955
        -41.033626556 -45.131744385 -47.419677734 -43.199066162 -41.407814026 -38.335666656
        -36.435256958 -35.612545013 -35.599796295 -36.088043213 -36.766345978 -37.568645477
        -38.38136673 -39.286026001 -40.420951843 -41.714233398 -43.064113617 -43.861534119
        -43.84122467 -43.459506989 -42.755199432 -41.631084442 -40.401733398 -39.193023682
        -38.111415863 -37.331626892 -36.719226837 -36.117744446 -35.52116394 -35.118572235
        -35.07762146 -35.764461517 -37.777664185 -41.149581909 -45.362892151 -47.623947144
        -43.667366028 -41.685165405 -38.315158844 -36.271980286 -35.433322906 -35.457763672
        -36.000888824 -36.715549469 -37.520484924 -38.334674835 -39.229572296 -40.363967896
        -41.637886047 -43.041915894 -44.040229797 -44.515853882 -45.427352905 -46.171936035
        -44.865867615 -42.495285034 -40.644042969 -39.237449646 -38.256969452 -37.534442902
        -36.920936584 -36.325050354 -35.871879578 -35.789360046 -36.309894562 -38.019512177
        -41.231285095 -45.436740875 -47.714374542 -43.721542358 -41.803806305 -38.514221191
        -36.5470047 -35.792079926 -35.919567108 -36.582176208 -37.337200165 -38.217216492
        -39.285720825 -40.56048584 -42.344631195 -45.067050934 -47.540306091 -47.018669128
        -45.324813843 -45.513431549 -46.081043243 -44.722816467 -42.323944092 -40.496955872
        -39.131393433 -38.173736572 -37.469108582 -36.84551239 -36.247009277 -35.804008484
        -35.695541382 -36.238853455 -38.086521149 -41.523536682 -46.273590088 -48.959365845
        -44.103385925 -42.058837891 -38.583747864 -36.514884949 -35.711788177 -35.848777771
        -36.514808655 -37.241874695 -38.101325989 -39.147758484 -40.397232056 -42.131019592
        -44.809864044 -47.186759949 -46.534729004 -44.662231445 -44.762680054 -46.75062561
        -47.696743011 -45.292392731 -42.052970886 -40.029754639 -38.815498352 -38.035129547
        -37.370880127 -36.663730621 -36.083084106 -35.906738281 -36.434623718 -38.293991089
        -41.70672226 -46.40460968 -49.081459045 -44.321037292 -42.280914307 -38.764808655
        -36.514671326 -35.646873474 -35.808837891 -36.471221924 -37.324565887 -38.326511383
        -39.532478333 -41.014568329 -42.935081482 -44.825634003 -45.174186707 -44.078403473
        -43.321220398 -43.885097504 -46.055927277 -47.178253174 -44.908256531 -41.729255676
        -39.779140472 -38.645111084 -37.90071106 -37.285411835 -36.593845367 -36.000724792
        -35.848335266 -36.426605225 -38.321994781 -41.822647095 -46.997940063 -50.072929382
        -44.393112183 -42.345153809 -38.821941376 -36.554283142 -35.656265259 -35.786945343
        -36.417732239 -37.247913361 -38.21414566 -39.362445831 -40.781078339 -42.617263794
        -44.355804443 -44.528869629 -43.229747772 -42.125881195 -41.767040253 -42.021961212
        -42.559383392 -42.493667603 -41.532524109 -40.282325745 -39.157569885 -38.157981873
        -37.282291412 -36.530292511 -35.876708984 -35.577323914 -36.216464996 -38.411949158
        -42.07592392 -47.237350464 -50.28087616 -44.713684082 -42.641643524 -38.902599335
        -36.252555847 -35.243972778 -35.472129822 -36.141738892 -37.176048279 -38.32510376
        -39.483623505 -40.573791504 -41.208759308 -41.329490662 -41.115127563 -40.763824463
        -40.554374695 -40.648376465 -41.188026428 -41.956268311 -42.076015472 -41.265159607
        -40.09141922 -39.022342682 -38.076225281 -37.246063232 -36.54466629 -35.930538177
        -35.662063599 -36.346786499 -38.587547302 -42.385715485 -47.390701294 -50.164627075
        -45.252429962 -43.069633484 -39.185207367 -36.487915039 -35.42445755 -35.583206177
        -36.188640594 -37.148921967 -38.240058899 -39.338596344 -40.33436203 -40.882713318
        -40.941299438 -40.61076355 -40.030883789 -39.526176453 -39.265171051 -39.288261414
        -39.61574173 -39.874038696 -39.951511383 -39.700698853 -39.042613983 -38.183097839
        -37.097415924 -36.053783417 -35.269195557 -34.940280914 -35.826076508 -38.536808014
        -42.601852417 -47.681617737 -50.53163147 -45.526161194 -43.246658325 -39.077522278
        -36.028980255 -34.713855743 -34.817531586 -35.666759491 -37.024681091 -38.245552063
        -38.959365845 -39.215415955 -39.108650208 -38.902050018 -38.697185516 -38.448894501
        -38.296360016 -38.396141052 -38.653804779 -39.085746765 -39.455848694 -39.642463684
        -39.469749451 -38.856903076 -38.049396515 -37.044460297 -36.102035522 -35.427883148
        -35.233802795 -36.253196716 -39.092105865 -43.307094574 -47.577713013 -49.533721924
        -47.199234009 -44.92150116 -40.690532684 -37.172115326 -35.266624451 -35.115791321
        -35.775283813 -36.95621109 -38.071250916 -38.717933655 -38.946273804 -38.801689148
        -38.500267029 -38.184989929 -37.854194641 -37.552597046 -37.396080017 -37.377090454
        -37.482532501 -37.730461121 -38.064750671 -38.362308502 -38.622478485 -38.70318222
        -37.787467957 -35.889438629 -34.817352295 -35.196052551 -36.597949982 -39.398048401
        -43.581813812 -47.888095856 -49.826084137 -47.382095337 -45.09236145 -41.047225952
        -38.254871368 -36.660404205 -35.720428467 -36.573997498 -38.212135315 -38.120025635
        -37.560909271 -37.412239075 -37.250183105 -37.034393311 -36.841941833 -36.774448395
        -36.735595703 -36.731098175 -36.849319458 -37.074172974 -37.378108978 -37.728042603
        -38.035839081 -38.295116425 -38.416694641 -37.666244507 -36.248428345 -35.657817841
        -36.775356293 -39.555297852 -43.015197754 -46.481136322 -48.508930206 -48.78717041
        -48.646713257 -48.096897125 -46.106571198 -43.345176697 -40.734653473 -38.659179688
        -38.252914429 -38.488052368 -37.799827576 -37.218734741 -37.1121521 -36.9778862
        -36.764701843 -36.511642456 -36.345291138 -36.185531616 -36.032367706 -35.953273773
        -35.970321655 -36.08895874 -36.216945648 -36.25466156 -36.219791412 -37.528495789
        -39.435359955 -38.964748383 -37.892177582 -38.411689758 -40.252441406 -43.131458282
        -46.638320923 -48.909919739 -49.258216858 -49.016334534 -48.300235748 -46.092048645
        -43.451515198 -41.514537811 -40.646087646 -40.745567322 -41.151725769 -38.49552536
        -35.486530304 -35.481060028 -35.631153107 -35.649520874 -35.623615265 -35.626029968
        -35.636306763 -35.642784119 -35.663047791 -35.727321625 -35.874141693 -36.014759064
        -36.033905029 -35.935562134 -37.451873779 -40.765647888 -42.33972168 -42.910453796
        -44.349384308 -46.008460999 -47.389152527 -47.973526001 -48.042388916 -47.959617615
        -47.729839325 -47.729362488 -47.830448151 -47.93637085 -47.56477356 -46.255172729
        -44.814712524 -43.305664062 -38.985427856 -35.480033875 -35.413833618 -35.558647156
        -35.571357727 -35.530250549 -35.450218201 -35.358436584 -35.264774323 -35.14831543
        -35.022941589 -34.952739716 -34.942909241 -34.943775177 -35.323760986 -38.937335968
        -42.473075867 -42.907531738 -43.478397369 -44.56072998 -46.207809448 -47.732658386
        -48.439437866 -48.638687134 -48.653800964 -48.432628632 -48.39220047 -48.392539978
        -48.333221436 -47.834564209 -46.428165436 -44.568992615 -45.008586884 -42.333595276
        -36.942550659 -35.265598297 -35.027160645 -35.09935379 -35.224330902 -35.309314728
        -35.33140564 -35.323852539 -35.265304565 -35.195575714 -35.160331726 -35.144733429
        -35.190593719 -35.870941162 -40.540546417 -45.344734192 -46.715362549 -47.640609741
        -47.72568512 -47.360237122 -47.275733948 -47.467411041 -47.944725037 -48.275100708
        -48.076461792 -47.814437866 -47.492256165 -47.485420227 -47.771953583 -48.398117065
        -48.532367706 -49.661373138 -46.162601471 -39.205718994 -36.764915466 -36.426456451
        -36.558502197 -36.741840363 -36.916877747 -37.047615051 -37.072303772 -37.014492035
        -36.916801453 -36.745700836 -36.643039703 -37.231704712 -40.622314453 -44.258575439
        -45.108734131 -46.246692657 -47.886829376 -48.276947021 -48.017913818 -47.994178772
        -48.29901123 -48.84274292 -49.174724579 -49.023033142 -48.691890717 -48.336585999
        -48.242923737 -48.413631439 -48.95067215 -48.494869232 -46.69789505 -45.654712677
        -46.473731995 -45.384803772 -43.213851929 -43.171977997 -43.510635376 -43.318378448
        -42.827438354 -42.375137329 -41.85710144 -41.402667999 -40.988922119 -40.802337646
        -41.525840759 -45.620780945 -49.908969879 -49.996555328 -48.644412994 -47.778503418
        -47.393943787 -47.345741272 -47.558486938 -48.180149078 -48.90561676 -49.207935333
        -49.070949554 -48.727157593 -48.180389404 -47.774734497 -47.585388184 -47.736701965
        -48.212310791 -49.0284729 -50.534584045 -52.734294891 -51.832172394 -49.480979919
        -49.439022064 -49.896865845 -49.914524078 -49.541061401 -49.324676514 -49.407855988
        -49.796615601 -49.480136871 -48.442268372 -47.342792511 -46.68977356 -47.206825256
        -48.337303162 -48.797294617 -48.473236084 -48.28610611 -48.3826828 -48.641654968
        -49.256088257 -50.092483521 -50.477790833 -50.640022278 -50.095794678 -49.349365234
        -48.905632019 -48.548965454 -48.428199768 -48.635452271 -48.835289001 -48.677253723
        -48.575714111 -48.577007294 -48.792438507 -49.332332611 -49.841861725 -50.408290863
        -50.824272156 -51.102420807 -51.724399567 -52.621643066 -52.772521973 -52.108764648
        -51.120628357 -49.820884705 -48.66091156 -48.008201599 -47.71837616 -47.612289429
        -47.870090485 -48.338634491 -48.755355835 -49.29315567 -50.134273529 -50.602172852
        -51.624530792 -50.738632202 -49.702972412 -49.082309723 -48.384246826 -48.029907227
        -48.020332336 -48.276847839 -48.700187683 -49.452598572 -50.095237732 -50.414890289
        -50.654151917 -50.594497681 -50.41091156 -50.047767639 -49.297714233 -48.604164124
        -48.095314026 -47.798332214 -47.660186768 -47.552452087 -47.553794861 -47.617744446
        -47.796344757 -47.847354889 -47.797798157 -48.131900787 -48.563209534 -48.820503235
        -49.193733215 -49.867290497 -50.277599335 -51.929450989 -51.776077271 -51.348949432
        -50.912223816 -50.559158325 -49.741104126 -48.81439209 -48.021240234 -47.024780273
        -46.206077576 -45.768543243 -45.401165009 -45.060890198 -44.932128906 -44.885139465
        -44.868717194 -44.804714203 -44.782646179 -45.151714325 -45.460964203 -45.550754547
        -45.589744568 -45.392311096 -45.398265839 -45.449867249 -45.476509094 -45.788673401
        -46.20539093 -46.676979065 -47.402442932 -47.945446014 -48.560035706 -49.095397949
        -49.840408325 -49.612205505 -49.14282608 -48.63381958 -48.21049118 -47.705730438
        -47.209365845 -46.879398346 -46.699409485 -46.75769043 -46.993522644 -47.089847565
        -46.978279114 -46.671264648 -46.186058044 -45.630966187 -45.113285065 -44.79145813
        -44.715896606 -44.691490173 -44.649570465 -44.790302277 -45.055511475 -45.598182678
        -46.20640564 -46.773181915 -47.394100189 -48.051425934 -48.67987442 -49.14566803
        -49.614631653 -50.261482239 -50.629360199 -50.009410858 -49.79863739 -49.369743347
        -48.761703491 -48.107666016 -47.479099274 -46.744846344 -45.778625488 -44.78319931
        -44.270942688 -44.338294983 -44.588111877 -44.759338379 -44.742481232 -44.610851288
        -44.408828735 -44.284427643 -44.455871582 -44.688964844 -44.990924835 -45.671665192
        -47.335975647 -47.696174622 -46.554710388 -46.324951172 -46.545799255 -46.854206085
        -47.438976288 -48.039855957 -48.363395691 -48.895133972 -49.551898956 -49.783889771
        -49.212394714 -48.981956482 -48.552696228 -48.069103241 -47.469322205 -46.894874573
        -46.522838593 -46.352722168 -46.82409668 -45.021347046 -41.893253326 -40.873710632
        -40.52363205 -40.415184021 -40.508140564 -40.56993866 -40.614433289 -40.78560257
        -40.987354279 -41.225219727 -41.782444 -43.193351746 -43.415763855 -42.767181396
        -43.71245575 -45.213382721 -46.380439758 -47.245376587 -47.984329224 -48.659820557
        -49.392047882 -50.124771118 -50.448196411 -49.979244232 -49.498813629 -48.774078369
        -48.071285248 -47.097511292 -45.754642487 -44.03232193 -42.578083038 -42.625728607
        -41.16884613 -38.446365356 -37.667861938 -37.480651855 -37.421489716 -37.432624817
        -37.388034821 -37.313896179 -37.228343964 -37.142612457 -37.141975403 -37.282314301
        -37.742919922 -39.164600372 -44.189041138 -46.529636383 -45.31344986 -46.070140839
        -46.712329865 -47.350074768 -48.032043457 -48.700855255 -49.400100708 -49.75245285
        -49.386116028 -48.983982086 -48.335762024 -47.670669556 -46.867862701 -45.714267731
        -44.406505585 -43.364807129 -40.484985352 -37.499565125 -36.711555481 -36.463733673
        -36.334011078 -36.26360321 -36.227619171 -36.179225922 -36.106414795 -36.00592041
        -35.912864685 -35.843044281 -35.873004913 -36.164676666 -37.118946075 -41.240905762
        -43.057189941 -42.239398956 -43.837203979 -45.440303802 -46.767372131 -47.940578461
        -49.071117401 -50.097015381 -50.612445831 -49.728767395 -48.971672058 -47.329559326
        -45.620014191 -44.017230988 -42.509483337 -41.400821686 -40.884117126 -38.863254547
        -36.613220215 -36.1679039 -36.091056824 -36.060352325 -36.043827057 -36.088172913
        -36.115524292 -36.081882477 -36.06137085 -36.086364746 -36.097900391 -36.106655121
        -36.128799438 -36.317432404 -37.802307129 -40.781059265 -42.838542938 -43.979431152
        -45.43031311 -46.598972321 -47.609184265 -48.658145905 -49.57970047 -49.990821838
        -49.389316559 -48.680744171 -47.213859558 -45.682067871 -44.073894501 -42.367767334
        -41.145717621 -39.361316681 -37.031173706 -36.269714355 -36.593452454 -36.820007324
        -36.785202026 -36.700141907 -36.672592163 -36.607894897 -36.475399017 -36.355442047
        -36.265476227 -36.176357269 -36.115196228 -36.03225708 -36.066249847 -37.175773621
        -39.169837952 -39.989742279 -40.27911377 -41.326782227 -42.866863251 -44.953804016
        -47.28144455 -49.495601654 -50.530590057 -47.722869873 -46.090740204 -43.176147461
        -40.882858276 -39.396839142 -38.568069458 -38.591583252 -38.302257538 -36.93523407
        -36.375831604 -36.716133118 -36.972930908 -37.015823364 -37.053710938 -37.133060455
        -37.183006287 -37.181983948 -37.150569916 -37.109313965 -37.059738159 -37.031562805
        -36.895748138 -36.630142212 -36.759464264 -37.586444855 -38.267288208 -39.156288147
        -40.896846771 -42.91501236 -45.059711456 -47.204734802 -49.244567871 -50.243202209
        -47.645359039 -46.14099884 -43.369976044 -40.65290451 -38.257480621 -36.857902527
        -36.577278137 -36.920078278 -37.177097321 -37.422836304 -37.686283112 -37.883865356
        -37.995792389 -38.037708282 -38.00888443 -37.913539886 -37.777282715 -37.609615326
        -37.471969604 -37.336486816 -37.228870392 -37.097816467 -36.866916656 -36.943019867
        -37.338130951 -36.991226196 -36.647754669 -37.331562042 -38.668678284 -40.941829681
        -44.221027374 -47.880836487 -49.692241669 -45.066429138 -43.267883301 -40.121883392
        -37.818618774 -36.34280014 -35.748966217 -36.186073303 -37.009540558 -37.420700073
        -37.666610718 -37.918987274 -38.137199402 -38.309631348 -38.461711884 -38.583202362
        -38.680023193 -38.705215454 -38.624168396 -38.566848755 -38.440982819 -38.271659851
        -38.114616394 -37.917140961 -37.581172943 -36.961147308 -36.307067871 -36.041965485
        -36.508899689 -38.177764893 -40.839416504 -44.106098175 -47.703807831 -49.492721558
        -44.851848602 -43.143333435 -40.011291504 -37.628715515 -36.315441132 -36.057689667
        -36.46320343 -37.232971191 -38.078392029 -38.752002716 -39.161502838 -39.452991486
        -39.671794891 -39.756038666 -39.801086426 -39.727775574 -39.532455444 -39.280059814
        -39.03181839 -38.774841309 -38.538291931 -38.336231232 -38.1120224 -37.753730774
        -37.053649902 -36.19449234 -35.623825073 -35.727550507 -36.861083984 -39.122592926
        -42.319049835 -46.446201324 -48.772781372 -44.266990662 -42.515415192 -39.352352142
        -37.064479828 -35.907806396 -35.811443329 -36.37543869 -37.261947632 -38.183204651
        -38.902061462 -39.342792511 -39.665920258 -39.950534821 -40.156604767 -40.405712128
        -40.622276306 -40.777961731 -40.809772491 -40.62203598 -40.371841431 -39.988182068
        -39.42301178 -38.808357239 -38.167129517 -37.478939056 -36.817569733 -36.390583038
        -36.397850037 -37.230854034 -39.197696686 -42.209831238 -46.221229553 -48.496318817
        -44.144069672 -42.388496399 -39.433937073 -37.526115417 -36.568832397 -36.529968262
        -37.063838959 -37.859710693 -38.841148376 -39.778156281 -40.674190521 -41.465415955
        -41.923789978 -42.177871704 -42.158981323 -41.903572083 -41.648994446 -41.350791931
        -40.964355469 -40.605316162 -40.159603119 -39.533473969 -38.896575928 -38.234218597
        -37.484901428 -36.743350983 -36.230236053 -36.145225525 -36.938163757 -38.949295044
        -42.04618454 -46.054374695 -48.279174805 -44.091995239 -42.334720612 -39.32723999
        -37.349079132 -36.404983521 -36.413551331 -36.996185303 -37.838863373 -38.847614288
        -39.818668365 -40.74477005 -41.56968689 -42.072711945 -42.444747925 -42.616016388
        -42.688697815 -43.233989716 -43.913959503 -43.790664673 -43.012283325 -41.997913361
        -40.755443573 -39.583499908 -38.694831848 -37.938827515 -37.252342224 -36.758655548
        -36.67729187 -37.350391388 -39.075576782 -42.004730225 -45.989387512 -48.229850769
        -43.993728638 -42.263648987 -39.333744049 -37.508480072 -36.671215057 -36.710678101
        -37.333633423 -38.113357544 -39.004573822 -40.20602417 -41.751583099 -43.851207733
        -46.083293915 -46.699394226 -45.281829834 -43.848274231 -43.769897461 -44.22833252
        -43.974720001 -43.10161972 -42.065467834 -40.816429138 -39.611808777 -38.699302673
        -37.922855377 -37.22309494 -36.709033966 -36.588935852 -37.267120361 -39.057220459
        -42.048561096 -46.221828461 -48.623249054 -44.084667206 -42.327178955 -39.343849182
        -37.475250244 -36.624534607 -36.683620453 -37.325111389 -38.104259491 -38.999549866
        -40.214069366 -41.777175903 -43.88010788 -46.135692596 -46.776462555 -45.392364502
        -44.033721924 -44.204319 -46.072120667 -49.581520081 -48.088165283 -43.083198547
        -40.913909912 -39.565246582 -38.725234985 -38.130207062 -37.492145538 -36.950687408
        -36.86869812 -37.425235748 -39.019069672 -41.967380524 -46.13609314 -48.523387909
        -44.042808533 -42.308704376 -39.290294647 -37.361721039 -36.560680389 -36.629959106
        -37.221115112 -37.958847046 -38.881340027 -40.071872711 -41.456989288 -43.214782715
        -45.079483032 -45.63759613 -44.644008636 -43.801422119 -44.143936157 -46.004192352
        -49.552173615 -48.091861725 -43.048339844 -40.877285004 -39.560214996 -38.716506958
        -38.123836517 -37.480754852 -36.935527802 -36.864894867 -37.430046082 -39.009784698
        -41.965164185 -46.218952179 -48.669143677 -43.954479218 -42.272144318 -39.327903748
        -37.430149078 -36.628135681 -36.684570312 -37.252449036 -37.97203064 -38.889900208
        -40.058097839 -41.422386169 -43.177024841 -44.993206024 -45.498474121 -44.436149597
        -43.444271088 -43.268966675 -43.577957153 -43.662052155 -42.89887619 -41.638092041
        -40.365127563 -39.288043976 -38.419700623 -37.663635254 -37.013404846 -36.501964569
        -36.334655762 -37.006259918 -38.908927917 -42.02759552 -46.298446655 -48.739746094
        -44.119083405 -42.36441803 -39.204044342 -36.967445374 -36.002773285 -36.042182922
        -36.553070068 -37.36737442 -38.296112061 -39.315032959 -40.327285767 -41.190593719
        -41.791694641 -42.150688171 -42.342723846 -42.422283173 -42.675689697 -43.23091507
        -43.458415985 -42.775959015 -41.58052063 -40.340423584 -39.27154541 -38.422637939
        -37.698684692 -37.079925537 -36.601539612 -36.464885712 -37.150608063 -39.033782959
        -42.147144318 -46.241085052 -48.496463776 -44.371265411 -42.598930359 -39.431869507
        -37.205406189 -36.209716797 -36.178451538 -36.62330246 -37.38230896 -38.261806488
        -39.256721497 -40.243114471 -41.063861847 -41.627601624 -41.879196167 -41.90422821
        -41.688301086 -41.36888504 -41.098033905 -40.856136322 -40.478382111 -39.968757629
        -39.356498718 -38.604663849 -37.843616486 -37.059947968 -36.298519135 -35.748645782
        -35.663322449 -36.575572968 -38.844581604 -42.196258545 -46.371006012 -48.682003021
        -44.547111511 -42.690895081 -39.286102295 -36.729061127 -35.468429565 -35.35786438
        -35.916015625 -36.865364075 -37.787101746 -38.548938751 -39.115886688 -39.46339035
        -39.68787384 -39.915298462 -40.161403656 -40.340343475 -40.493423462 -40.555160522
        -40.484767914 -40.216117859 -39.78540802 -39.212265015 -38.479774475 -37.748130798
        -37.021934509 -36.360214233 -35.928546906 -35.968223572 -36.980125427 -39.30305481
        -42.681938171 -46.403556824 -48.251197815 -45.79365921 -43.967308044 -40.557502747
        -37.706428528 -36.026813507 -35.655540466 -35.993625641 -36.773986816 -37.624332428
        -38.350578308 -38.897159576 -39.216209412 -39.380172729 -39.488933563 -39.545684814
        -39.451396942 -39.270263672 -39.046291351 -38.80651474 -38.57226181 -38.392868042
        -38.218738556 -37.967197418 -37.66305542 -36.944355011 -35.802127838 -35.217948914
        -35.623855591 -36.942947388 -39.364097595 -42.798370361 -46.579288483 -48.435024261
        -45.868900299 -44.038661957 -40.74829483 -38.368587494 -36.818790436 -35.868804932
        -36.154209137 -37.075309753 -37.315261841 -37.440483093 -37.718997955 -37.904457092
        -38.058067322 -38.157234192 -38.30254364 -38.44190979 -38.481861115 -38.443359375
        -38.373584747 -38.242984772 -38.102333069 -37.942913055 -37.681835175 -37.394901276
        -36.788528442 -36.015789032 -35.927398682 -36.973426819 -39.24805069 -42.126491547
        -45.138931274 -47.671318054 -48.626991272 -47.669525146 -46.813186646 -44.755088806
        -42.376338959 -40.017906189 -38.066337585 -37.256595612 -37.167613983 -37.012126923
        -37.1314888 -37.445137024 -37.634181976 -37.725627899 -37.702632904 -37.693157196
        -37.641292572 -37.504459381 -37.337429047 -37.205051422 -37.096885681 -36.980140686
        -36.802658081 -36.506977081 -36.884151459 -37.706272125 -37.535388947 -37.347187042
        -38.138374329 -39.733276367 -42.114501953 -45.140888214 -47.852710724 -48.861045837
        -47.801856995 -46.826137543 -44.590789795 -42.334659576 -40.662693024 -39.597206116
        -39.037372589 -38.910316467 -37.53717041 -36.179615021 -36.372425079 -36.592098236
        -36.671829224 -36.691249847 -36.761249542 -36.830348969 -36.850261688 -36.824165344
        -36.805213928 -36.801006317 -36.763309479 -36.609992981 -36.27872467 -36.779979706
        -38.551143646 -39.880729675 -41.006149292 -42.655704498 -44.368663788 -45.911380768