<VTKFile type="ImageData" version="0.1" byte_order="LittleEndian">
  <ImageData WholeExtent="0 32 0 32 0 2" Origin="0 0 0" Spacing="1 1 1">
  <Piece Extent="0 32 0 32 0 2">
    <PointData>
    </PointData>
    <CellData Scalars="Amplitude">
      <DataArray type="Float32" Name="Amplitude" format="ascii" RangeMin="-76.003410339" RangeMax="-28.311510086">
        -53.112960815 -52.875270844 -52.18667984 -51.863048553 -50.96308136 -49.059051514
        -47.86756897 -46.144031525 -44.406318665 -43.338310242 -42.692909241 -42.10395813
        -41.607639313 -41.15530014 -40.881721497 -40.671409607 -40.297229767 -40.214118958
        -40.064670563 -40.186088562 -40.325878143 -40.643779755 -40.830669403 -41.114170074
        -41.409210205 -41.795749664 -42.152198792 -42.620960236 -43.163169861 -43.610160828
        -44.134929657 -44.547389984 -44.154769897 -43.668430328 -43.402309418 -42.843029022
        -42.757991791 -42.072689056 -41.792518616 -41.661849976 -41.259368896 -40.927619934
        -40.156639099 -39.599628448 -39.24792099 -39.058959961 -39.022060394 -39.114780426
        -39.358249664 -39.739341736 -39.971401215 -40.154338837 -40.636940002 -41.230129242
        -42.29019928 -43.754199982 -45.806480408 -47.8502388 -49.679988861 -51.211658478
        -52.584690094 -52.114368439 -53.002479553 -53.302791595 -54.205200195 -53.955818176
        -52.908390045 -51.438800812 -49.36151123 -46.674819946 -43.880069733 -40.914531708
        -38.711200714 -37.81855011 -37.733879089 -37.580631256 -37.599250793 -37.388561249
        -37.396369934 -37.085708618 -36.949619293 -36.865680695 -36.899501801 -37.186340332
        -37.849189758 -39.065849304 -40.047679901 -40.3331604 -40.568191528 -40.982440948
        -41.347610474 -41.999320984 -42.499580383 -43.081600189 -43.71364975 -44.016151428
        -43.403938293 -42.94424057 -42.666240692 -42.25164032 -41.688709259 -41.357349396
        -41.176891327 -41.372138977 -41.028659821 -39.575531006 -37.61151886 -36.494861603
        -35.844638824 -35.539100647 -35.383338928 -35.211048126 -35.151500702 -34.942298889
        -34.759128571 -34.62525177 -34.424060822 -34.049911499 -34.254901886 -36.702190399
        -40.247680664 -43.800830841 -47.185489655 -49.865768433 -52.135620117 -53.686561584
        -54.966850281 -55.917888641 -56.369689941 -54.515361786 -52.433300018 -49.356800079
        -45.671279907 -41.615909576 -37.337898254 -33.238040924 -32.025829315 -32.645771027
        -33.17950058 -33.717498779 -34.201751709 -34.466609955 -34.630168915 -34.840969086
        -34.956741333 -35.130451202 -35.429191589 -35.990161896 -36.84803009 -38.017009735
        -39.092601776 -39.945011139 -40.248840332 -40.546138763 -40.748371124 -41.22877121
        -41.889041901 -42.368740082 -42.886260986 -43.550609589 -42.830478668 -42.652481079
        -42.24187088 -41.917560577 -41.651199341 -41.22769165 -41.249240875 -41.559589386
        -40.545650482 -39.642089844 -38.656421661 -37.507259369 -36.64773941 -36.236068726
        -35.743991852 -35.372451782 -34.92522049 -34.543151855 -34.065929413 -33.438438416
        -32.746940613 -31.922340393 -30.9751091 -30.761100769 -34.102420807 -38.698108673
        -42.521430969 -46.209220886 -49.264408112 -52.937969208 -56.19052124 -58.935409546
        -56.324199677 -51.207569122 -47.118278503 -43.412490845 -40.161430359 -36.458530426
        -32.547420502 -30.026569366 -30.708690643 -31.948150635 -32.947311401 -33.883388519
        -34.632190704 -35.209850311 -35.762851715 -36.119480133 -36.46710968 -36.867298126
        -37.298828125 -37.943950653 -38.789188385 -39.5311203 -39.863529205 -40.503749847
        -40.688301086 -40.767299652 -41.09733963 -41.426860809 -41.717399597 -41.975650787
        -42.691360474 -42.723300934 -42.583751678 -42.412559509 -42.576229095 -42.55696106
        -41.797351837 -40.300029755 -39.878448486 -39.486171722 -39.50466156 -40.22851944
        -40.418968201 -39.747970581 -38.767681122 -38.315288544 -37.740169525 -37.20690918
        -36.530410767 -35.790279388 -34.906669617 -33.982791901 -33.01871109 -31.884799957
        -30.763370514 -29.799600601 -30.073970795 -32.703910828 -35.734771729 -38.085529327
        -41.861839294 -46.195110321 -51.942008972 -58.767990112 -49.540008545 -43.110469818
        -37.781421661 -33.690460205 -32.441558838 -30.636180878 -29.911340714 -30.396240234
        -31.245439529 -32.389480591 -33.385341644 -34.579471588 -35.704021454 -36.671298981
        -37.526561737 -38.211788177 -38.733509064 -39.183959961 -39.465080261 -39.765518188
        -40.145999908 -39.905418396 -39.462741852 -38.455448151 -38.229270935 -38.239578247
        -39.602050781 -41.834011078 -42.436069489 -42.393291473 -42.510448456 -42.558181763
        -42.664199829 -42.982170105 -43.170841217 -41.048530579 -38.458339691 -37.929000854
        -38.400630951 -39.110401154 -40.266460419 -41.054988861 -41.486400604 -41.320648193
        -41.139808655 -40.649009705 -39.990001678 -39.308158875 -38.195648193 -37.035678864
        -36.000431061 -34.667720795 -33.592479706 -32.523200989 -31.517349243 -30.69260025
        -30.184099197 -30.080970764 -30.336000443 -30.470050812 -32.978488922 -38.806598663
        -46.1731987 -54.60736084 -44.756401062 -37.171348572 -31.317159653 -29.739830017
        -30.003519058 -30.258579254 -30.642770767 -31.302000046 -31.988019943 -32.957271576
        -33.963489532 -35.28414917 -36.661560059 -38.078910828 -39.42868042 -40.771839142
        -41.407550812 -41.769458771 -41.842769623 -41.659328461 -41.30847168 -40.853359222
        -40.306770325 -39.619419098 -39.08877182 -38.846820831 -38.711170197 -40.22246933
        -42.295711517 -42.339321136 -42.160068512 -42.331871033 -42.345588684 -42.942909241
        -43.119289398 -41.269081116 -39.587921143 -39.609828949 -40.21006012 -41.068470001
        -42.017658234 -42.548728943 -43.057880402 -43.757480621 -43.79404068 -43.587028503
        -43.107410431 -41.540649414 -40.108089447 -38.429710388 -36.815090179 -35.255519867
        -34.100711823 -32.986339569 -32.060749054 -31.267589569 -30.682870865 -30.101409912
        -29.534980774 -29.139829636 -30.377950668 -36.014209747 -43.493751526 -52.741680145
        -44.047710419 -36.495681763 -30.523759842 -29.006620407 -29.553689957 -30.185539246
        -30.810419083 -31.597679138 -32.339630127 -33.322360992 -34.32477951 -35.614421844
        -37.266651154 -39.141990662 -41.200519562 -43.414470673 -45.051700592 -45.577388763
        -44.9063797 -44.242740631 -42.975009918 -42.337909698 -41.843410492 -41.515491486
        -40.920280457 -40.57088089 -40.763671875 -41.718921661 -42.724330902 -42.432670593
        -42.193878174 -42.097671509 -42.350421906 -42.737449646 -43.585769653 -42.6248703
        -41.26499939 -41.394958496 -41.961250305 -42.696029663 -43.641239166 -44.222240448
        -45.274719238 -46.469890594 -47.505970001 -48.341838837 -46.761779785 -43.988121033
        -41.383739471 -39.007968903 -37.032600403 -35.42522049 -34.129119873 -33.003620148
        -32.141559601 -31.376449585 -30.658760071 -29.934740067 -29.204999924 -28.622900009
        -29.991689682 -35.961971283 -44.009799957 -53.150218964 -44.98431015 -36.668479919
        -30.268930435 -28.608350754 -29.235069275 -29.936019897 -30.711330414 -31.493589401
        -32.251079559 -33.224140167 -34.197189331 -35.514080048 -37.061599731 -39.25825882
        -41.799041748 -45.514469147 -50.8230896 -53.472949982 -49.949951172 -47.573360443
        -45.448471069 -44.368579865 -43.514118195 -43.105640411 -42.542888641 -42.16381073
        -42.183971405 -43.145561218 -43.479431152 -42.644950867 -42.308410645 -42.278530121
        -42.458778381 -43.103660583 -44.01581955 -43.294921875 -42.029979706 -42.477199554
        -43.204151154 -43.939731598 -45.184459686 -46.483211517 -48.337398529 -51.329860687
        -56.362659454 -57.478710175 -49.538669586 -44.447071075 -41.269100189 -38.759029388
        -36.709339142 -35.063129425 -33.902870178 -32.805660248 -32.006580353 -31.250099182
        -30.483419418 -29.797920227 -29.070339203 -28.382289886 -29.948129654 -36.273571014
        -44.867221832 -55.640201569 -45.747989655 -36.924930573 -30.29058075 -28.458209991
        -29.06403923 -29.823900223 -30.553979874 -31.269630432 -32.011489868 -32.911869049
        -33.856441498 -35.00038147 -36.54655838 -38.359111786 -40.762428284 -43.900760651
        -49.4337883 -57.540588379 -57.778018951 -51.61907959 -47.626800537 -45.783679962
        -44.666069031 -44.217769623 -43.532230377 -42.841358185 -42.622718811 -43.551609039
        -43.856468201 -43.097801208 -42.588291168 -42.522720337 -42.894088745 -43.556648254
        -44.287078857 -43.022819519 -42.042419434 -42.304988861 -43.202018738 -44.272640228
        -45.752288818 -47.45426178 -49.835700989 -53.047809601 -54.707790375 -51.0832901
        -46.108779907 -42.512908936 -39.692928314 -37.556400299 -35.838008881 -34.397918701
        -33.273220062 -32.432861328 -31.697839737 -31.021169662 -30.370479584 -29.631309509
        -28.907510757 -28.311510086 -29.986829758 -36.346881866 -45.257610321 -57.623138428
        -45.892131805 -37.0377388 -30.406299591 -28.500940323 -29.058889389 -29.74148941
        -30.422430038 -31.094560623 -31.737089157 -32.506149292 -33.328201294 -34.257339478
        -35.41027832 -36.91411972 -38.812801361 -41.069038391 -43.793281555 -47.045238495
        -49.797889709 -49.940860748 -48.518100739 -46.90512085 -45.594459534 -44.318450928
        -43.419059753 -42.700321198 -42.267688751 -42.822589874 -43.744930267 -43.569160461
        -43.130039215 -42.938610077 -43.535240173 -44.101459503 -44.064899445 -42.038089752
        -41.377979279 -41.710159302 -42.692878723 -44.49433136 -45.974430084 -47.716819763
        -48.743991852 -48.505508423 -47.14484024 -44.991268158 -42.337100983 -39.998550415
        -37.732639313 -36.180938721 -34.800998688 -33.764308929 -32.837360382 -32.105091095
        -31.484699249 -30.907289505 -30.339450836 -29.719839096 -29.03429985 -28.523670197
        -30.295959473 -36.740139008 -46.10351944 -57.390640259 -46.969619751 -37.672218323
        -30.90225029 -28.94642067 -29.3353405 -29.909349442 -30.442169189 -30.966310501
        -31.525169373 -32.137969971 -32.738670349 -33.542678833 -34.572170258 -35.734771729
        -37.060390472 -38.708660126 -40.620830536 -42.6186409 -44.862388611 -46.068450928
        -47.135921478 -46.724430084 -45.856239319 -44.484169006 -42.658748627 -41.49710083
        -40.825550079 -41.377601624 -43.107078552 -44.004058838 -43.559688568 -43.672618866
        -44.082698822 -44.26210022 -43.473518372 -40.793731689 -39.779930115 -40.245510101
        -42.070011139 -44.620239258 -45.870491028 -46.303840637 -45.681190491 -44.472061157
        -43.021289825 -41.460510254 -39.539901733 -37.876491547 -36.378578186 -34.997169495
        -33.86479187 -33.027770996 -32.337711334 -31.680940628 -31.166009903 -30.691169739
        -30.34375 -29.908550262 -29.480329514 -29.251729965 -31.276380539 -37.980911255
        -47.683719635 -55.394828796 -50.315769196 -41.025440216 -34.001068115 -30.420139313
        -30.072689056 -30.365030289 -30.420589447 -30.714010239 -31.080270767 -31.617139816
        -32.182929993 -32.870571136 -33.637138367 -34.6210289 -35.795330048 -36.998661041
        -38.330581665 -39.802028656 -41.266139984 -42.763141632 -44.130371094 -45.300209045
        -46.342750549 -46.612800598 -43.502159119 -39.80329895 -40.077228546 -41.974918365
        -43.888771057 -44.446128845 -44.216491699 -44.257339478 -44.448421478 -44.579811096
        -44.582588196 -44.01568985 -42.133098602 -40.310890198 -45.199478149 -46.514469147
        -44.171348572 -43.374881744 -42.474010468 -41.473220825 -40.156650543 -38.952949524
        -37.728488922 -36.419910431 -35.175239563 -34.089420319 -33.139099121 -32.344051361
        -31.674610138 -31.038160324 -30.499340057 -30.21187973 -30.338140488 -31.350120544
        -31.400619507 -33.648658752 -38.708850861 -45.017040253 -52.244888306 -53.317001343
        -52.84500885 -50.514350891 -44.749530792 -40.03289032 -36.756938934 -35.435798645
        -32.065490723 -30.172769547 -30.340730667 -30.987970352 -31.611749649 -32.352558136
        -33.076370239 -33.860591888 -34.839141846 -35.754581451 -36.77973938 -37.768699646
        -38.884059906 -39.988620758 -40.860500336 -41.445381165 -41.896278381 -47.506481171
        -49.684940338 -44.485790253 -44.332180023 -44.26530838 -44.386940002 -44.412998199
        -44.878360748 -45.199428558 -45.187660217 -44.65391922 -44.450401306 -44.573230743
        -44.695091248 -45.696529388 -49.784450531 -52.584190369 -40.884410858 -39.733009338
        -39.591510773 -38.968799591 -38.200359344 -37.357139587 -36.447238922 -35.504268646
        -34.532550812 -33.571201324 -32.685321808 -31.938560486 -31.271360397 -30.55837059
        -29.84221077 -30.562519073 -35.30865097 -39.879508972 -42.944339752 -45.855709076
        -49.52589035 -51.230781555 -51.371959686 -50.719810486 -50.272018433 -50.803859711
        -51.413608551 -51.308250427 -49.68252182 -44.946540833 -38.831329346 -32.022678375
        -30.450439453 -30.852279663 -31.478540421 -32.195739746 -32.920528412 -33.642971039
        -34.353530884 -35.128700256 -35.89358139 -36.595920563 -37.239318848 -37.947761536
        -38.613960266 -39.331409454 -41.56306076 -53.781551361 -50.239578247 -46.202381134
        -44.887359619 -44.555519104 -44.894119263 -45.279838562 -45.875179291 -46.587791443
        -46.593238831 -45.899688721 -45.453010559 -45.15802002 -45.189460754 -45.894138336
        -48.60395813 -60.576381683 -46.284881592 -40.182609558 -38.548969269 -37.885391235
        -37.395759583 -36.93806839 -36.302688599 -35.540710449 -34.732410431 -33.839309692
        -33.107749939 -32.346500397 -31.67070961 -31.146299362 -31.442989349 -35.374580383
        -41.983230591 -48.436260223 -51.036430359 -50.423439026 -49.567871094 -49.361110687
        -49.35351944 -49.962409973 -49.559680939 -49.205150604 -49.411170959 -49.91947937
        -50.820850372 -51.688018799 -47.943359375 -41.521789551 -36.267349243 -34.088039398
        -34.24005127 -35.031410217 -35.921440125 -36.712089539 -37.714668274 -38.632389069
        -39.383708954 -40.102539062 -40.617599487 -40.910949707 -41.644001007 -44.465801239
        -55.434169769 -54.782558441 -48.294559479 -46.272720337 -45.8019104 -45.846000671
        -46.234340668 -46.813400269 -47.668010712 -48.387039185 -48.48638916 -47.516338348
        -47.213691711 -46.427349091 -46.486850739 -46.806968689 -47.541130066 -49.785301208
        -55.044410706 -60.495121002 -52.716011047 -50.867931366 -50.86713028 -50.541881561
        -48.304878235 -46.657810211 -44.826641083 -43.115509033 -41.775020599 -40.652111053
        -40.002281189 -39.991279602 -42.591869354 -46.827278137 -50.081821442 -49.92855072
        -49.110839844 -48.817020416 -48.485599518 -48.70059967 -49.538589478 -50.028831482
        -49.655509949 -49.250400543 -48.741119385 -48.716781616 -48.710578918 -48.942401886
        -49.558738708 -49.228721619 -48.079910278 -47.317741394 -46.799819946 -47.540149689
        -48.480880737 -49.697570801 -51.113769531 -52.087779999 -53.726470947 -55.962799072
        -58.333141327 -57.160270691 -55.954418182 -53.423191071 -50.752750397 -48.655399323
        -47.784721375 -47.394081116 -47.459468842 -47.757091522 -48.471019745 -48.90940094
        -49.875759125 -50.926750183 -51.624530792 -49.852729797 -49.553211212 -48.611408234
        -48.157089233 -47.902729034 -48.137931824 -48.41576004 -48.984619141 -49.920581818
        -50.269889832 -50.559890747 -50.748409271 -50.440589905 -50.381229401 -49.714309692
        -48.881118774 -48.327209473 -47.863418579 -47.733249664 -47.587120056 -47.517780304
        -47.589809418 -47.645679474 -47.94701004 -47.747699738 -47.847900391 -48.415901184
        -48.710521698 -48.930480957 -49.456981659 -50.277599335 -50.745941162 -50.370140076
        -49.963710785 -49.6354599 -49.775039673 -49.167251587 -49.163700104 -48.909660339
        -48.639110565 -48.440570831 -48.602378845 -48.205410004 -48.32654953 -48.639030457
        -48.864509583 -49.057231903 -49.19298172 -49.426250458 -50.901821136 -50.691280365
        -50.999771118 -50.389549255 -49.705249786 -49.942970276 -49.333110809 -49.367961884
        -49.838790894 -50.209609985 -50.714168549 -52.122268677 -51.914421082 -53.643409729
        -51.347969055 -50.622161865 -50.053909302 -49.122421265 -48.723869324 -49.126869202
        -49.425289154 -50.070579529 -52.504371643 -54.545848846 -57.243919373 -58.113941193
        -58.621189117 -56.713531494 -55.153358459 -52.282661438 -50.931728363 -49.171779633
        -48.237781525 -47.324531555 -46.877738953 -47.218639374 -48.135890961 -49.012119293
        -49.278991699 -49.343719482 -49.124149323 -49.574050903 -49.360691071 -49.495830536
        -50.522598267 -51.023849487 -50.329708099 -50.10503006 -50.241909027 -50.08285141
        -50.530841827 -50.584209442 -50.402309418 -48.081871033 -45.06180954 -43.33877182
        -42.941139221 -43.335109711 -43.977050781 -45.333389282 -46.820590973 -48.395088196
        -50.157588959 -52.472988129 -54.153240204 -56.00025177 -59.343978882 -66.465332031
        -57.11566925 -51.748760223 -50.0977211 -48.438610077 -48.066879272 -48.508148193
        -48.580718994 -49.189670563 -50.04088974 -50.792770386 -48.910739899 -48.000968933
        -47.598960876 -47.364040375 -47.036190033 -47.925361633 -50.181690216 -54.812290192
        -64.61026001 -50.025989532 -46.100650787 -45.19190979 -44.165599823 -43.473869324
        -42.729888916 -41.537479401 -40.427448273 -39.317699432 -38.488300323 -37.689739227
        -37.140739441 -37.207740784 -39.119029999 -42.816070557 -47.18585968 -50.385719299
        -50.835948944 -50.153831482 -50.131649017 -49.97315979 -50.48400116 -51.065979004
        -51.232608795 -50.612960815 -51.420589447 -51.478721619 -51.93270874 -48.809638977
        -43.853839874 -38.651870728 -35.266750336 -34.171970367 -34.259998322 -34.786960602
        -35.441989899 -36.238349915 -36.999660492 -37.771728516 -38.614261627 -39.28635025
        -39.787490845 -40.366550446 -41.173980713 -43.081890106 -48.493728638 -73.088798523
        -52.002628326 -48.08990097 -46.968730927 -46.711738586 -46.684188843 -47.387390137
        -47.853889465 -48.475330353 -47.111690521 -46.546588898 -46.262950897 -46.253559113
        -46.681060791 -48.124649048 -53.033180237 -57.994800568 -44.597358704 -41.101089478
        -40.035591125 -39.566650391 -38.802249908 -38.074069977 -37.432029724 -36.642818451
        -35.72713089 -34.864040375 -34.196308136 -33.470279694 -32.949668884 -32.577541351
        -32.791358948 -34.779548645 -39.529159546 -44.698001862 -48.426959991 -50.707210541
        -51.444389343 -51.548500061 -51.395679474 -51.488430023 -52.648700714 -52.451660156
        -50.155071259 -47.598320007 -44.462230682 -41.309089661 -37.256771088 -33.405349731
        -32.06803894 -32.294689178 -32.717899323 -33.413928986 -34.029399872 -34.719051361
        -35.527481079 -36.323078156 -37.077770233 -38.019248962 -38.836101532 -39.533351898
        -39.98141098 -40.532188416 -42.346260071 -50.397800446 -55.48638916 -48.738658905
        -46.887649536 -46.165840149 -45.856441498 -46.12871933 -46.396770477 -46.816139221
        -46.000610352 -45.816890717 -45.972618103 -46.066589355 -46.535770416 -47.917720795
        -53.497718811 -48.79209137 -42.257820129 -41.147129059 -41.044960022 -40.385639191
        -39.421421051 -38.506240845 -37.59980011 -36.583400726 -35.495040894 -34.596389771
        -33.808998108 -33.100170135 -32.571998596 -31.94865036 -31.660070419 -32.071819305
        -34.337059021 -37.122348785 -39.180919647 -42.0353508 -45.785640717 -50.109630585
        -52.812301636 -53.814929962 -52.767101288 -46.494529724 -41.244468689 -37.174110413
        -34.911911011 -34.004020691 -32.587211609 -31.868839264 -31.930620193 -32.30298996
        -32.811668396 -33.409439087 -34.110931396 -34.932811737 -35.77230072 -36.823120117
        -37.871700287 -39.003269196 -40.119880676 -41.328781128 -42.33852005 -43.351898193
        -44.064201355 -47.798469543 -49.925930023 -45.506229401 -45.160511017 -45.541641235
        -45.740020752 -45.95608139 -45.718990326 -45.831699371 -45.61013031 -45.959369659
        -46.216529846 -44.896881104 -43.43806076 -43.044158936 -46.105690002 -46.980258942
        -45.618530273 -44.574169159 -43.485221863 -42.592739105 -41.109268188 -39.984519958
        -38.544570923 -37.131809235 -35.942520142 -34.910629272 -34.056819916 -33.287670135
        -32.704280853 -32.220741272 -31.889780045 -31.663579941 -31.755649567 -32.008071899
        -32.248630524 -33.459598541 -36.889560699 -42.334518433 -49.875080109 -55.771720886
        -47.234981537 -39.764480591 -34.393161774 -31.766000748 -31.39125061 -31.468820572
        -31.63891983 -31.895650864 -32.204269409 -32.669189453 -33.161159515 -33.803798676
        -34.565090179 -35.505531311 -36.484401703 -37.780719757 -39.103488922 -40.628360748
        -42.290641785 -43.722480774 -45.230831146 -46.483581543 -47.542350769 -47.417541504
        -45.267520905 -43.224651337 -42.879398346 -43.743888855 -45.362358093 -45.708778381
        -45.451210022 -45.259941101 -45.070419312 -45.860549927 -45.521419525 -43.90378952
        -42.862140656 -43.279460907 -44.597179413 -46.508720398 -47.642349243 -47.988548279
        -46.94575882 -45.650211334 -43.858020782 -41.998119354 -40.2186203 -38.489898682
        -37.05739975 -35.736408234 -34.742111206 -33.870788574 -33.15819931 -32.568351746
        -32.094680786 -31.720729828 -31.364749908 -30.979129791 -30.713039398 -30.875640869
        -32.870819092 -38.011608124 -45.373458862 -54.757640839 -45.604240417 -37.756221771
        -32.598999023 -30.572879791 -30.50633049 -30.906639099 -31.404390335 -31.898649216
        -32.392478943 -32.964729309 -33.589561462 -34.38727951 -35.276180267 -36.330799103
        -37.661209106 -39.345420837 -41.216060638 -43.301418304 -45.467781067 -47.674331665
        -48.628139496 -48.629428864 -47.945999146 -46.888370514 -45.471439362 -44.449790955
        -44.011768341 -44.42496109 -45.714389801 -45.435581207 -44.723480225 -44.388278961
        -44.57390976 -45.542331696 -46.231269836 -45.064769745 -43.956501007 -44.47108078
        -45.376438141 -47.132820129 -49.030658722 -50.311901093 -51.383239746 -50.679420471
        -48.190490723 -45.369060516 -42.464660645 -40.392398834 -38.400051117 -36.868019104
        -35.55329895 -34.540180206 -33.662071228 -32.902500153 -32.368171692 -31.794300079
        -31.254119873 -30.686790466 -30.219249725 -30.195339203 -32.112781525 -37.220939636
        -44.391151428 -53.480529785 -44.459339142 -37.36151123 -32.222179413 -30.186479568
        -30.298820496 -30.75094986 -31.367469788 -31.971969604 -32.563529968 -33.304550171
        -34.04019165 -34.998748779 -36.161499023 -37.669258118 -39.264240265 -41.324859619
        -44.045188904 -47.310680389 -51.129840851 -52.893798828 -52.311088562 -50.218101501
        -48.151340485 -47.107059479 -45.671390533 -45.106250763 -44.569438934 -45.276870728
        -45.978569031 -45.214279175 -44.286331177 -44.010131836 -44.072490692 -45.000610352
        -46.028759003 -45.442401886 -44.27368927 -44.683681488 -45.538269043 -46.680339813
        -47.951881409 -50.685329437 -53.740650177 -58.651550293 -58.586341858 -51.016811371
        -46.22964859 -42.668178558 -40.067230225 -38.079391479 -36.38658905 -35.106960297
        -34.224048615 -33.252620697 -32.577480316 -31.882089615 -31.340259552 -30.678829193
        -30.101699829 -29.981309891 -31.944789886 -36.974040985 -43.81967926 -52.564128876
        -44.059410095 -37.249568939 -32.136878967 -30.134420395 -30.298629761 -30.817840576
        -31.501880646 -32.146091461 -32.812789917 -33.671520233 -34.530971527 -35.593608856
        -37.014591217 -38.846908569 -40.906620026 -43.816410065 -48.032020569 -55.395809174
        -76.003410339 -56.03881073 -51.083881378 -48.631710052 -46.798160553 -46.403629303
        -45.932170868 -45.330978394 -45.161651611 -46.077960968 -45.659320831 -44.398448944
        -43.719989777 -43.366500854 -43.469749451 -44.567249298 -45.309421539 -45.254360199
        -44.210548401 -44.477310181 -45.087001801 -45.637519836 -47.148269653 -48.812480927
        -50.582679749 -53.2706604 -55.454479218 -53.088050842 -47.996868134 -44.406600952
        -41.356079102 -39.025928497 -37.27922821 -35.780410767 -34.566608429 -33.619510651
        -32.851898193 -32.075531006 -31.437709808 -30.769790649 -30.218910217 -30.067279816
        -31.929389954 -36.803131104 -43.509159088 -51.164218903 -43.561950684 -37.197589874
        -32.261219025 -30.399049759 -30.53606987 -31.104839325 -31.67952919 -32.380550385
        -33.096290588 -33.957950592 -34.901660919 -36.192138672 -37.605148315 -39.724620819
        -41.760650635 -44.886520386 -48.434391022 -51.719409943 -51.034301758 -49.122390747
        -47.50522995 -46.100379944 -45.102279663 -44.695980072 -43.97069931 -43.807868958
        -43.712310791 -44.369438171 -44.818099976 -44.072990417 -43.531780243 -43.233020782
        -43.487010956 -44.102230072 -44.460918427 -43.608131409 -42.50302887 -42.305011749
        -42.768230438 -43.406478882 -44.18516922 -45.346359253 -46.117168427 -47.478748322
        -47.739559174 -47.675670624 -46.525569916 -43.988021851 -41.503089905 -39.438331604
        -37.650211334 -36.096721649 -34.85918045 -33.892910004 -32.987411499 -32.290531158
        -31.648010254 -31.03414917 -30.535839081 -30.453250885 -32.176929474 -36.852039337
        -43.177490234 -50.42358017 -43.493190765 -37.430461884 -32.72052002 -30.902009964
        -30.966739655 -31.319990158 -31.838630676 -32.449451447 -33.093109131 -34.074729919
        -35.069198608 -36.314941406 -37.722351074 -39.452949524 -41.456108093 -43.43201828
        -44.967269897 -45.722530365 -45.575050354 -45.008930206 -43.979179382 -43.317920685
        -42.468608856 -42.269989014 -41.881401062 -41.609451294 -41.732948303 -42.823410034
        -43.846679688 -43.733779907 -43.399349213 -43.241168976 -43.642940521 -43.973941803
        -43.853820801 -42.24023056 -40.783031464 -40.523021698 -40.979438782 -41.556648254
        -42.215408325 -43.170799255 -43.75069046 -44.137699127 -43.719799042 -43.638561249
        -42.948040009 -41.701129913 -40.262401581 -38.873859406 -37.36371994 -35.957839966
        -34.767459869 -33.754570007 -32.86946106 -32.179389954 -31.666849136 -31.315860748
        -31.058580399 -31.195650101 -32.962459564 -37.51309967 -43.580898285 -50.696170807
        -45.133228302 -39.302360535 -34.567760468 -32.301151276 -31.823610306 -31.651489258
        -31.693920135 -32.137031555 -32.800548553 -33.746139526 -34.724559784 -35.909980774
        -37.272838593 -38.540309906 -39.821811676 -40.929821014 -41.684429169 -42.041278839
        -42.243141174 -42.09154129 -42.067100525 -41.711540222 -40.912101746 -40.530769348
        -40.027950287 -39.848609924 -40.251121521 -41.701271057 -43.292411804 -43.552619934
        -43.413108826 -43.39176178 -43.578178406 -43.926078796 -44.001239777 -43.059070587
        -40.724861145 -39.868778229 -39.723499298 -40.199478149 -40.904949188 -41.828601837
        -41.803730011 -41.796669006 -41.3474617 -40.729488373 -40.230941772 -39.610321045
        -38.705921173 -37.717971802 -36.689590454 -35.407169342 -34.340679169 -33.280628204
        -32.369960785 -31.679620743 -31.404920578 -31.851110458 -32.837089539 -33.896518707
        -36.873008728 -41.233089447 -46.988090515 -53.541858673 -49.806499481 -44.80714035
        -40.879959106 -37.689731598 -35.730960846 -33.569389343 -31.879430771 -31.586299896
        -32.206981659 -33.236438751 -34.243721008 -35.317810059 -36.284290314 -37.21326828
        -37.990390778 -38.556560516 -39.033409119 -39.429031372 -39.922531128 -40.399978638
        -40.825531006 -40.955780029 -40.570289612 -40.339351654 -40.484851837 -40.683250427
        -41.837341309 -42.889289856 -43.197620392 -43.086460114 -43.266170502 -43.385890961
        -43.36825943 -43.426269531 -43.244750977 -43.056770325 -42.765930176 -42.127010345
        -41.740890503 -41.469009399 -41.052970886 -40.994419098 -40.580589294 -40.070049286
        -39.104381561 -38.433601379 -37.948619843 -37.601978302 -37.039001465 -36.439689636
        -35.741168976 -34.847820282 -33.974090576 -32.988929749 -31.972549438 -31.550159454
        -32.972198486 -35.546649933 -38.340148926 -40.781311035 -44.047229767 -47.403129578
        -51.679538727 -55.723140717 -54.072540283 -50.875911713 -47.62828064 -44.711540222
        -41.77355957 -38.625259399 -35.252941132 -32.736751556 -32.521659851 -33.247638702
        -34.160968781 -34.959770203 -35.545841217 -36.043678284 -36.440490723 -36.746799469
        -36.961360931 -37.257209778 -37.8503685 -38.466320038 -39.068599701 -39.999370575
        -40.647880554 -41.38243866 -41.575790405 -41.619838715 -41.838729858 -42.132991791
        -42.444839478 -42.943569183 -43.520561218 -43.722789764 -43.540939331 -43.233951569
        -42.949150085 -42.804359436 -42.293331146 -41.939071655 -41.741569519 -41.474559784
        -41.002368927 -40.07408905 -38.80411911 -37.946868896 -37.185871124 -36.664821625
        -36.528850555 -36.115959167 -35.877258301 -35.620929718 -35.318729401 -34.802768707
        -34.281261444 -33.655540466 -33.217700958 -34.046951294 -36.876369476 -40.364971161
        -43.736591339 -46.556659698 -49.212459564 -51.717849731 -54.108139038 -56.215000153
        -54.678668976 -53.263019562 -51.35943985 -48.98085022 -46.449581146 -43.249450684
        -40.04573822 -37.145980835 -35.295539856 -35.150558472 -35.404720306 -35.756008148
        -35.963909149 -36.082370758 -36.176670074 -36.268638611 -36.277950287 -36.368610382
        -36.661800385 -37.160751343 -37.900299072 -39.013050079 -40.109260559 -40.913890839