<VTKFile type="ImageData" version="0.1">
  <ImageData WholeExtent="0 2 0 1 0 1" Origin="0 0 0" Spacing="1 1 1">
     <Piece Extent="0 2 0 1 0 1">
       <PointData>
       </PointData>
       <CellData>
       	<DataArray Name="Amplitude" type="Int8" format="ascii" NumberOfComponents="2">1 2 3 4</DataArray>
        <DataArray Name="Amplitude1" type="Int8" format="ascii" NumberOfComponents="2">1 2 3 4</DataArray>
       </CellData>
     </Piece>
  </ImageData>
</VTKFile>
