<VTKFile type="ImageData" version="0.1" byte_order="LittleEndian">
  <ImageData WholeExtent="0 44 0 42 0 2" Origin="0 0 0" Spacing="1 1 1">
  <Piece Extent="0 44 0 42 0 2">
    <PointData Scalars="Amplitude">
      <DataArray type="Float32" Name="Amplitude" format="ascii" RangeMin="-67.25" RangeMax="-21">
        -48 -48 -48 -48 -48 -48
        -48 -48 -47.5 -46 -45 -45
        -45 -45 -43.5 -42 -42 -40.5
        -39 -39 -39 -39 -39 -38.5
        -38 -38.5 -39 -39 -41.5 -44
        -44.5 -47.5 -50 -52.5 -55 -55
        -53 -51 -51 -49.5 -48 -48
        -48 -48 -48 -39.5 -39.5 -40.5
        -41.5 -41.5 -42.25 -43 -43.25 -43.5
        -43 -43.25 -44 -44 -44.5 -44.25
        -43.5 -44 -43.75 -43 -43.25 -43.5
        -43.5 -43.5 -43.25 -43 -43.25 -43.5
        -43.5 -44.75 -46 -46.25 -47.75 -49
        -50.25 -51.5 -51.5 -50.25 -49.25 -49.25
        -48.5 -47.75 -47.75 -48 -48 -48
        -31 -30.75 -31.5 -32.25 -31.5 -31.75
        -32.5 -32.75 -33.25 -33.5 -34.25 -35
        -35.75 -37 -37.5 -38.75 -40.25 -40.75
        -43.5 -46.25 -49.5 -51.25 -50 -48
        -45.5 -45 -44.25 -43.5 -43.5 -43.25
        -43 -43 -42.75 -42.5 -42.25 -42
        -41.75 -42 -42.25 -42.5 -43 -43.25
        -43.75 -43.75 -43.5 -39.5 -39.25 -39
        -38.75 -38 -37.5 -37.5 -37 -36.25
        -36.25 -35.75 -35.25 -36.25 -35.75 -34.5
        -35.5 -35.75 -35.25 -37.25 -39 -42
        -43 -41 -39 -35.75 -34.5 -33.75
        -33 -33 -33 -33.25 -33.25 -33.25
        -33.5 -33.25 -34.5 -36 -38.5 -42.5
        -44.25 -43.5 -42.5 -42.75 -41.25 -39.5
        -48 -48 -48 -48 -48 -48
        -48 -47.5 -46.75 -46.5 -45.75 -45.25
        -45.5 -44 -42.5 -42.25 -41.5 -41
        -40.5 -39.75 -39.5 -38.75 -38.25 -38.5
        -38 -37.25 -37.25 -37.5 -37.5 -38.25
        -39.25 -39.5 -40.25 -41 -40.25 -41
        -42.5 -43.5 -46 -47.5 -45 -42.5
        -42.5 -41 -39.5 -44 -44.75 -45.5
        -45.5 -46 -46.5 -46.5 -46.75 -46.75
        -46.5 -46.75 -47 -47.25 -47.25 -47
        -47 -47 -47 -47.25 -47.25 -47
        -47 -47.25 -47.5 -47.5 -47.5 -47.25
        -47 -46.75 -47 -47.5 -47.5 -47.75
        -48 -46.25 -44.75 -45 -43.25 -41.5
        -41.5 -40 -38.5 -38.5 -38.75 -39
        -40.5 -43.25 -46 -45.75 -45.5 -45.5
        -45.5 -44.75 -43.75 -43.75 -43.5 -43
        -43 -42.75 -42.5 -42.25 -42 -42.25
        -43 -43.5 -43.25 -43.25 -43.5 -43.5
        -44 -44.75 -44.75 -44.75 -44.75 -44.75
        -45 -44.75 -44.5 -44.5 -43.5 -42.75
        -43 -42.75 -42.5 -42.5 -42.25 -42
        -42 -42 -42 -44.5 -46.5 -48.5
        -48.25 -47.5 -47 -47.25 -46.5 -45.5
        -45.25 -44.5 -44 -42.75 -41.25 -41
        -39.75 -38.5 -38.25 -38.5 -39 -38
        -37.25 -37.5 -37.5 -38.25 -39.25 -40.25
        -41.25 -41.5 -41.75 -42 -42.75 -43.5
        -43.5 -44 -44.5 -44.5 -45 -45.5
        -45.5 -45.5 -45.5 -45.5 -45.25 -45
        -48 -48 -47.75 -47.5 -47.25 -47
        -47.25 -47.25 -47 -46.75 -46.75 -47
        -46 -45 -45 -44 -43 -42.5
        -42 -42 -41.25 -40.5 -40.5 -40.5
        -40.5 -40.75 -41.5 -42 -42 -42
        -42 -42.75 -43.5 -43.5 -44 -44.5
        -44.5 -44.75 -44.5 -44 -44 -43
        -42 -41.25 -40.5 -45 -45 -44.75
        -44.25 -43.75 -43.5 -43.25 -42.75 -42.5
        -42.5 -42.5 -42.25 -42 -42 -42
        -42 -42 -42 -42 -42.5 -43.25
        -43.5 -44.25 -45.25 -45.25 -48 -51
        -51 -46.75 -42.5 -42.25 -40.5 -39
        -38.5 -38 -38 -37.75 -37.5 -37
        -36.5 -36.75 -35.75 -35.5 -35.75 -35
        -43.5 -43.5 -44.75 -47.5 -49 -45.25
        -41 -40.5 -39 -37.5 -37.25 -36.5
        -35.75 -35.25 -35 -35 -35.25 -35.5
        -35.25 -36.5 -38.25 -38.5 -40.25 -42.25
        -43 -47 -50.5 -50.75 -46.75 -42.5
        -42.25 -40.5 -39 -38.25 -37.5 -37.5
        -37.25 -37 -37 -37 -37.25 -37.25
        -38 -39 -39 -37.5 -37.5 -38.5
        -41.25 -42.75 -38.75 -34.75 -34.5 -33
        -31.5 -31.25 -30.75 -30.75 -30.75 -30.5
        -31.25 -32.25 -32.5 -33 -34.5 -35.5
        -38.75 -42.75 -43.5 -44.25 -45.5 -46
        -46.25 -46.25 -46 -45.75 -45.25 -45
        -44.75 -44.5 -44.5 -44.5 -44.5 -44.5
        -44.5 -44.5 -44.5 -44.5 -44.25 -44
        -30 -30 -29.75 -29.5 -29.25 -29
        -29 -29.25 -29.5 -29.75 -30.25 -30.5
        -31 -31.5 -31.5 -32.25 -33 -33
        -33.75 -34.75 -35 -38.25 -41.25 -41
        -41 -41 -40.75 -40.75 -40.75 -40.25
        -39.75 -39.25 -39 -39 -39 -39
        -39 -38.75 -38.25 -38.25 -38.25 -38
        -38 -37.75 -37.5 -36 -36.5 -37
        -37 -37.25 -37.5 -37.5 -37.75 -38
        -38.25 -38.75 -39 -39 -39 -39
        -38.75 -38.5 -38.25 -37.75 -37.75 -37.5
        -37 -37.25 -37 -36.5 -36.5 -36.25
        -36.25 -36.5 -36.25 -35.75 -35.5 -35.25
        -35 -34.75 -34.5 -34.5 -33.5 -32.25
        -32.25 -32.25 -31.75 -31.5 -31.25 -31
        -42 -42.5 -42.5 -42 -42.25 -42.25
        -42 -42 -41.75 -41.5 -41.25 -41
        -41 -41 -41 -40.75 -40.25 -39.75
        -39 -38.5 -38 -37 -36.75 -36.5
        -35.5 -35 -35 -34.75 -34.5 -34.5
        -34.25 -34 -33.75 -33.5 -33.25 -33.25
        -33.5 -32.75 -32.5 -32.75 -32.75 -32.75
        -32.5 -32.25 -32 -38.5 -37.5 -36
        -35.25 -35 -34.75 -34 -33.5 -33.25
        -32.75 -32.25 -32 -32 -32 -32
        -32.25 -32.25 -32.25 -32.25 -32 -32.25
        -32 -31.5 -31.5 -31 -30.5 -30.5
        -30.25 -30.25 -30.5 -30.5 -30.75 -31.25
        -31.5 -31.5 -31.75 -32 -32 -32.5
        -32.75 -32.75 -33 -33 -33 -33
        -35.5 -34.25 -33.75 -34.25 -34 -34
        -33.5 -33 -33.25 -33.25 -33 -34
        -34.75 -36 -37.5 -37.75 -37.5 -37.25
        -37.5 -37.25 -37.25 -37.5 -37.5 -37.5
        -37.5 -37.5 -37.5 -37.5 -37.75 -38
        -37.75 -38 -38.75 -39 -39 -39
        -39 -39 -39.75 -40.5 -40.5 -39.75
        -39 -39 -39 -39 -38.75 -39.25
        -40 -40.25 -40.25 -40.25 -40.25 -40.25
        -40.5 -40.75 -42 -43.25 -45 -46.5
        -47.25 -47.5 -47 -47.5 -48 -47.75
        -45.5 -43.5 -42.75 -42 -42 -41.25
        -40.5 -40.5 -40.25 -39.75 -39.75 -39.5
        -39 -39 -39 -39 -39.75 -41
        -41.75 -42 -41.25 -40.5 -41.5 -42.5
        -42 -42 -42 -42 -42.75 -43.25
        -43.25 -44.25 -45 -45 -46 -47
        -47.25 -45.5 -43.5 -43.5 -43.5 -43.5
        -43.25 -43.25 -43.25 -41 -38.75 -37.75
        -36.75 -36.5 -35.5 -34.75 -35 -35.25
        -35.5 -35.5 -35.75 -36 -36 -36.25
        -36.5 -37.75 -38.75 -38.75 -39.5 -40
        -40 -41.25 -42.5 -40.5 -42 -43.25
        -43 -45.75 -48.5 -49 -50.25 -51
        -50 -49.75 -50.5 -50 -47.5 -45.5
        -45.25 -45 -45 -44.5 -44 -44.5
        -45 -44.75 -44.5 -44.25 -44 -43.75
        -43.75 -44 -44.5 -45 -44.25 -44.25
        -45 -44.5 -44.25 -44.5 -44.75 -45
        -44.75 -44.75 -45 -44.75 -44.75 -45
        -39 -40.5 -41.5 -41.25 -43.25 -44.75
        -45.25 -45.5 -45 -44 -43 -43
        -42.75 -42.5 -42.5 -43 -43.75 -44
        -44.75 -45.5 -46 -47.25 -48 -48
        -48.5 -49 -49 -49.25 -49.5 -49.5
        -49.5 -48.75 -48 -48.25 -48 -47.25
        -47 -46.75 -46.5 -46.25 -45.5 -44.5
        -43.75 -42.75 -42 -49.5 -48.75 -47.75
        -47.5 -47.25 -46.5 -45.75 -45.25 -45
        -45 -45 -45.75 -46.5 -46.5 -48
        -49.5 -49.75 -46.25 -43 -43.5 -42
        -41.25 -41.25 -40.5 -41 -41 -40.5
        -40.75 -40.75 -40.5 -40.5 -40.5 -40.5
        -40.75 -41 -40.75 -40.5 -40.5 -40.5
        -40.75 -40.75 -40.25 -40.25 -39.75 -39
        -61.5 -60.75 -63.75 -67.25 -67.25 -64.25
        -60.5 -60 -57.75 -55.5 -55.5 -56
        -56.5 -56 -57 -58.5 -57.75 -53.25
        -49.5 -49 -47 -45.25 -44.25 -40.5
        -37.5 -37 -36.5 -36.5 -36.25 -36
        -36 -36 -36 -36 -36 -36.5
        -37 -37 -37.25 -37.75 -38 -41
        -44.25 -44.5 -44.5 -54.5 -55 -60.75
        -66 -66 -63 -60.75 -61.5 -59.25
        -57 -57 -57.25 -57.5 -57 -56.5
        -56.5 -55.75 -54.5 -54 -53.5 -53
        -52.75 -52.5 -49.5 -46.5 -46.5 -46
        -45.5 -45.5 -45.5 -45.25 -45 -45
        -45 -45 -45.5 -46 -46 -46.25
        -46.5 -46.5 -49.25 -52 -51.25 -50.5
        -46 -46.5 -48.5 -50 -49.25 -48.5
        -49.25 -48.5 -46.75 -46.5 -46.5 -47
        -47.5 -46.75 -46 -46 -46 -45.5
        -45.25 -45.25 -45.5 -46.25 -46.5 -46.25
        -46.25 -46.75 -46.5 -46 -47 -48
        -47.75 -50.5 -53.5 -53.5 -52 -50
        -49.75 -49 -48 -48 -47.25 -46.5
        -46.5 -45.75 -45 -42.5 -42.5 -41
        -39.5 -38.75 -38 -38 -36.5 -34.75
        -34.5 -34.5 -35 -35.5 -34.75 -34
        -34 -34 -35 -36.75 -37.5 -40.25
        -44 -45 -43 -40.75 -40.75 -41
        -41 -42 -41.5 -40 -43 -46
        -46 -44.5 -42.5 -42.25 -41.5 -40.5
        -40.5 -39.75 -39 -39 -39 -39
        -39 -39 -37.5 -36 -36.75 -37.5
        -37.5 -39 -40.5 -40.5 -40.5 -41
        -41.5 -42.5 -43.5 -43.5 -44.75 -47
        -48.5 -49.25 -51.75 -54.75 -55.5 -53.75
        -51.5 -51.25 -51.5 -51.5 -51.25 -49.5
        -48 -48 -48 -48 -48 -48
        -48 -48 -47.75 -47.25 -47 -47
        -47 -46.75 -46.5 -46 -45.75 -43.75
        -42 -42.5 -42.5 -42 -43.5 -44.25
        -42.75 -42 -42 -42 -43 -44
        -44 -45.25 -46.5 -46.5 -46.5 -46.5
        -46.5 -46.5 -46.75 -47.25 -48 -48.25
        -48.5 -48.75 -48.5 -48.5 -48.5 -49.75
        -52.5 -54 -54 -54.75 -55.5 -55.25
        -54.75 -54.5 -54.5 -54.5 -54.25 -54
        -53 -52.75 -50.75 -49 -49 -48.5
        -48 -48 -47.25 -45.75 -45 -45
        -45 -45 -45 -45 -45 -45
        -45 -45 -44.75 -44.5 -44 -43.5
        -43.75 -43.75 -41.75 -40.5 -41 -41
        -41 -40.75 -41.25 -43.5 -45 -45
        -45.75 -46.5 -46.5 -46.5 -46.5 -46.5
        -46.5 -46.5 -46.5 -46 -46 -47
        -48 -48.25 -48.5 -48.25 -48.75 -49.5
        -49.5 -50.25 -51.5 -52 -52 -52
        -52.25 -52.5 -52.5 -52.5 -52.5 -52.25
        -52 -51.5 -50.5 -50.25 -49.75 -47.75
        -46.25 -46 -45.25 -44.5 -44.25 -43
        -42 -42 -42 -42 -42 -40.5
        -39 -39 -39 -39 -39 -39
        -39 -39 -40 -41 -41 -41
        -40.75 -41.25 -42 -42 -42.75 -44
        -44.5 -44.5 -44.5 -44.75 -45.75 -46.5
        -46.5 -47.25 -48 -48 -48.75 -49.25
        -49.25 -50 -51 -51 -50.75 -50.25
        -49.5 -49.5 -49 -48.5 -48.25 -48
        -48 -48 -46.5 -45 -45 -45
        -45 -45 -45 -35 -35.25 -35.5
        -35.75 -36 -35.5 -35 -35 -35.5
        -36 -36 -36.75 -37.5 -37.5 -38.25
        -39 -39.75 -41.25 -42.25 -43.25 -44.5
        -45 -45.75 -46.5 -46.5 -47.5 -48.75
        -49.25 -49.75 -50 -50 -50 -50
        -50.25 -50.25 -50 -50 -50 -50.25
        -50.75 -50.75 -50.5 -50.75 -51 -51
        -31 -31.75 -32.5 -32.75 -33.5 -33.5
        -33 -34 -35.5 -39.75 -43.5 -44.25
        -45 -42.75 -39.75 -39 -39 -39.75
        -40.75 -41 -41.5 -42 -42 -41.75
        -41.75 -42 -42.25 -42.75 -43 -43.25
        -43.25 -43 -43 -43.25 -43.75 -44
        -44 -44 -44.25 -44.75 -46 -47
        -47.25 -50.75 -54 -27.5 -28 -38.25
        -48 -46.25 -41.75 -38.75 -38.75 -39
        -42.75 -46.5 -46.25 -46 -43.75 -40
        -38.5 -38.5 -38.5 -38.5 -38.5 -38.5
        -38.5 -38.5 -38.25 -38.5 -38.5 -38.5
        -38.75 -38.5 -40 -41.25 -41.25 -44.75
        -47.75 -48 -42.25 -36 -36.5 -37
        -38 -40.25 -41.5 -46 -53.75 -57
        -24 -24 -33.75 -43.5 -41.25 -36.25
        -34.75 -35.25 -34.5 -34.5 -34.5 -34.25
        -34 -34 -34 -35 -36 -36
        -37.25 -38.5 -38.5 -39.25 -40 -40.75
        -41.75 -41.75 -42.5 -43.5 -43.5 -44.75
        -46 -46.25 -50.5 -54.25 -54.25 -48.5
        -42.25 -43.25 -44.5 -45.5 -46.5 -46.5
        -51 -56.25 -57 -33.5 -33 -32.5
        -32.5 -32 -31.5 -33 -34.5 -34.5
        -34.5 -34.5 -34.5 -34.5 -34.5 -34.5
        -36.25 -38 -38.75 -41 -42.25 -43.25
        -45.25 -46 -47.75 -49.5 -49.5 -51
        -52.5 -52.5 -53 -53.5 -54.5 -56.25
        -57 -57.75 -58.75 -58.75 -57.75 -57
        -57 -56.25 -55.5 -55.5 -56.25 -57
        -43 -42.5 -42.5 -43 -42.5 -42.75
        -43.5 -44 -44.75 -45 -45 -45
        -45 -45.5 -46 -46.75 -47.75 -48.75
        -49.75 -49.75 -50.75 -52 -52 -53
        -53.5 -53 -53.5 -54 -54 -53.75
        -53.5 -54.5 -54.75 -54 -54.75 -54.75
        -54 -52.5 -50.25 -49.5 -48.75 -48
        -48 -47.5 -47 -45.5 -45.5 -46
        -46.5 -46.5 -47.25 -48 -48.5 -49
        -49 -49 -48.75 -48.5 -49 -49.25
        -49 -49.25 -49.5 -49.5 -49.5 -49.5
        -49.5 -49.25 -49 -48.5 -47.75 -47.25
        -47 -46.75 -45.75 -45 -44.25 -42.75
        -42 -41.75 -40.75 -39.5 -39 -38.25
        -37.5 -37.5 -37.5 -38 -37.75 -37
        -48 -48 -48 -48 -48 -48
        -48 -48 -47.75 -47.5 -47.5 -47.25
        -47 -47 -46 -45 -44.25 -43.5
        -43.5 -42 -40.5 -40.5 -38.75 -37
        -35.5 -33.75 -33.5 -33.5 -33.25 -33
        -33 -32 -31 -31 -30.75 -30.75
        -30.25 -29.5 -29.5 -29.5 -29.75 -29.75
        -30.25 -30.75 -30.5 -36 -36 -36
        -36 -36 -36 -36 -36 -36
        -36 -36 -36 -35.75 -35.5 -34.75
        -33.75 -32.75 -32 -31.75 -30 -28.5
        -28.5 -27 -25.5 -24 -22.5 -22.5
        -22.5 -22.5 -22.5 -22.5 -22.25 -22
        -22 -22 -22.25 -22.25 -22.75 -23.5
        -23.5 -23.75 -23.75 -23.75 -24 -24
        -24 -24 -24 -24 -29.75 -35.25
        -35 -33.75 -32.5 -32.25 -31.75 -31.5
        -31.25 -31 -31 -30.75 -30.5 -30.5
        -30.25 -30 -30 -30 -30 -30
        -30 -30 -30 -30 -30 -30
        -30 -30 -30 -30 -31.25 -32.5
        -32.5 -28.25 -24 -24 -24 -24
        -24 -24 -24 -24 -24 -24
        -24 -29.75 -35.25 -35 -33.75 -32.5
        -32.25 -31.75 -31.5 -30.75 -30 -30
        -30 -30 -30 -30 -30 -30
        -30 -30 -30 -30 -30 -30
        -30 -30.25 -30.75 -31 -31.25 -31.5
        -31.5 -32.75 -34 -34 -29 -24
        -24 -24 -24 -24 -24 -24
        -24 -24 -24 -24 -24 -24
        -24 -24 -24 -24 -24 -24
        -22.5 -21 -21 -21 -21 -21
        -21 -21 -21 -21 -21 -21
        -21 -21 -21 -21 -21.5 -22.5
        -23 -23.5 -24 -24 -24 -24
        -24 -24 -24 -24 -24 -24
        -24 -24 -24 -48.5 -48.5 -48.5
        -48.75 -49 -48.75 -48.75 -49 -48.75
        -48 -47.5 -47.5 -47.5 -47.5 -46.75
        -46 -46 -45 -44.25 -44.75 -45
        -44.75 -44.75 -44.75 -44.5 -45 -45.5
        -45.75 -47.5 -49 -49.25 -50.75 -52
        -52.5 -53 -53.25 -51.5 -49.5 -49.5
        -48 -46.5 -46.5 -46.5 -46.5 -46.5
        -44.5 -44.625 -45.25 -45.875 -46.125 -46.5
        -46.875 -47 -47 -46.75 -46.875 -47.25
        -47.125 -47.125 -46.875 -46.5 -46.875 -46.75
        -46.375 -46.875 -47.25 -47.125 -47.125 -47.125
        -46.75 -46.875 -47.25 -47.125 -47.75 -48.5
        -48.625 -49.375 -50 -50.125 -50.125 -50
        -48.875 -47.875 -47.875 -47.125 -46.375 -46.25
        -46.25 -46.25 -46.25 -40.5 -40.5 -40.75
        -40.75 -40.125 -40.125 -40.5 -40.25 -40
        -40.125 -40.5 -40.75 -41 -41.25 -41.25
        -42 -43 -43.375 -44.875 -46.5 -48.25
        -49.375 -49 -48 -46.5 -46.125 -46
        -45.5 -45.25 -45.25 -45.25 -45.25 -45.25
        -45.125 -44.75 -44.375 -44.125 -44.25 -44.375
        -44.5 -44.625 -44.5 -44.625 -44.5 -44.25
        -45 -44.875 -44.5 -44.125 -43.5 -43
        -43 -42.5 -41.75 -41.625 -41.25 -40.875
        -41 -40.25 -39.5 -39.75 -39.75 -39.375
        -40.25 -41.25 -42.5 -43 -42.25 -41.125
        -39.375 -38.625 -38.25 -38 -38.125 -38.5
        -38.75 -38.75 -39 -39.25 -39.375 -40.25
        -41 -42.375 -44.5 -45.375 -44.875 -44.25
        -44.5 -43.75 -42.75 -49.5 -49.5 -49.125
        -48.875 -49 -49 -49 -48.75 -48.25
        -48 -47.5 -47 -46.625 -45.375 -44.5
        -44 -43.375 -43 -42.5 -42.125 -41.75
        -41.125 -40.875 -40.875 -40.5 -40 -39.875
        -40 -40.125 -40.75 -41.25 -41.375 -41.875
        -42.25 -42.125 -42.75 -43.5 -44.125 -45
        -45.375 -44.25 -42.625 -42.375 -41.75 -41
        -49 -49.375 -49.375 -48.125 -47.5 -47.5
        -47 -46.875 -46.625 -46.375 -46.5 -46.375
        -46.375 -46.25 -45.875 -45.75 -45.75 -45.875
        -46.125 -46.125 -46 -46 -46.5 -47
        -47 -47.875 -48.625 -48.5 -48 -47.875
        -47.625 -46.375 -46 -45.625 -44.125 -43.375
        -43.125 -41.875 -40.5 -40.125 -39.5 -38.375
        -38 -38.125 -38.25 -47.25 -48.625 -50
        -48.125 -46.25 -45.75 -44.625 -43.625 -42.875
        -42.625 -42.625 -42.375 -42.125 -42 -42
        -41.875 -41.75 -42.25 -43 -43.375 -43.625
        -43.875 -44.5 -45 -45.25 -46.375 -47.125
        -47.25 -46.75 -46.25 -45.875 -44.375 -43.75
        -43.375 -42.125 -41.75 -41.625 -41 -40.875
        -41 -40.875 -40.75 -40.875 -41 -41
        -43.25 -44.25 -45.25 -44.25 -43 -42.5
        -42 -41.25 -40.625 -40.375 -40.125 -39.875
        -39.125 -38.5 -38.875 -38.625 -38 -38.375
        -39 -39.375 -39.5 -39.75 -40.125 -40.375
        -40.875 -41.375 -41.875 -42.5 -42.75 -42.875
        -43 -43.625 -44.375 -44.5 -45 -45
        -44.5 -44.625 -44.75 -44.75 -44.75 -44.75
        -44.875 -44.875 -44.75 -40.75 -40.75 -40.625
        -40.625 -40.625 -40.625 -40.875 -40.875 -40.75
        -40.625 -40.625 -40.875 -40.5 -40.125 -40.625
        -40.5 -40 -40.125 -40.125 -40 -39.875
        -40 -40.125 -40.125 -40.25 -40.375 -40.75
        -40.875 -41 -41.25 -41.25 -42 -42.75
        -42.75 -43.375 -43.375 -42.75 -42.875 -42.625
        -42.25 -42.25 -41.75 -41.25 -40.875 -40.5
        -42 -42 -41.75 -41.75 -41.875 -41.875
        -41.875 -41.625 -41.5 -41.625 -41.75 -41.75
        -41.625 -41.625 -41.75 -41.75 -41.75 -41.875
        -41.875 -42 -42.25 -42.375 -42.625 -42.875
        -42.875 -44 -45.25 -45.125 -42.875 -40.625
        -40.25 -39.25 -38.625 -38.375 -38 -38
        -37.75 -37.5 -37.25 -37 -37.125 -36.375
        -36.125 -36.375 -36 -43.25 -43.25 -43.75
        -45.25 -46.25 -44.25 -42 -41.625 -40.75
        -40.125 -40.125 -39.75 -39.375 -39.125 -38.75
        -38.5 -38.625 -38.75 -38.625 -39.25 -39.875
        -39.75 -40.25 -40.875 -41.25 -43.125 -44.75
        -44.875 -42.875 -40.625 -40.25 -39.25 -38.625
        -38.25 -37.75 -37.75 -37.5 -37.25 -37.25
        -37.25 -37.375 -37.125 -37.5 -38.25 -38.25
        -39 -39 -39.375 -40.625 -41.375 -39
        -36.625 -36.375 -35.25 -34.25 -34 -33.625
        -33.625 -33.625 -33.375 -33.625 -34.125 -34.25
        -34.5 -35.25 -35.625 -37.125 -39 -39.25
        -39.75 -40.5 -40.75 -41 -41.125 -41
        -40.875 -40.625 -40.5 -40.5 -40.5 -40.5
        -40.625 -40.75 -40.75 -40.75 -40.75 -40.75
        -40.875 -40.875 -40.75 -34.75 -35 -35
        -35 -35.125 -34.75 -34.625 -34.875 -34.75
        -35.125 -35.625 -35.75 -36.5 -37 -36.875
        -37.125 -37.5 -37.125 -37.125 -37.625 -37.75
        -39.375 -41 -41 -41.125 -41.125 -40.875
        -41.125 -41.375 -41.125 -40.875 -40.25 -39.625
        -39.625 -39.75 -39.5 -39.375 -39.375 -39.125
        -39.125 -39 -38.75 -38.75 -38.375 -38
        -40 -40.25 -40.5 -40.75 -41.125 -41.25
        -41.375 -41.75 -42 -42.625 -43.25 -43.5
        -44.125 -44.5 -44.375 -44.375 -44.5 -44.375
        -44.25 -44.375 -44.25 -43.875 -44 -43.25
        -42.25 -41.875 -41.25 -41.25 -41.125 -40.625
        -40.375 -39.5 -38.5 -38.25 -38.125 -37.75
        -37.5 -37 -36.375 -36.375 -36.25 -35.875
        -35.75 -35.375 -35 -45 -45 -44.875
        -44.875 -45.625 -46.125 -46 -46 -45.875
        -45.75 -45 -44.25 -44.375 -44.125 -43.75
        -43.875 -43.5 -43.25 -43.25 -42.75 -42.25
        -41.625 -41.5 -40.75 -39.5 -39 -38.625
        -38.375 -37.875 -37.625 -37.875 -37.5 -37
        -37 -36.875 -37.125 -37.5 -37.125 -37.125
        -37.375 -37.375 -37.375 -37.25 -37.25 -37.25
        -42.5 -42 -41.25 -41.375 -42.25 -42.75
        -42.875 -42.875 -43 -43.125 -42.25 -41.5
        -41.5 -41.125 -40.75 -40.875 -40.5 -40.125
        -40 -39.5 -39.375 -39.25 -39.125 -39.125
        -38.75 -38.5 -38.5 -38.375 -38.375 -38.625
        -39 -39.125 -39.25 -39.25 -39 -39.375
        -39.625 -39.5 -39.875 -39.875 -39.625 -39.75
        -39.625 -39.75 -40 -39.5 -38.875 -38.5
        -38.75 -38.875 -39 -39 -39 -39.5
        -39.875 -39.75 -40.25 -40.625 -41.25 -42.25
        -42.625 -42.625 -42.625 -42.875 -43.125 -43.375
        -43.5 -43.625 -43.625 -43.5 -43.75 -44
        -44.125 -44.375 -44.5 -44.375 -44.375 -44.625
        -44.375 -44 -43.875 -43.5 -43.25 -43.625
        -43.75 -43.5 -42.75 -41.875 -42 -42.25
        -45 -44.875 -45.5 -46 -46 -46
        -45.75 -45.625 -45.625 -45.75 -45.875 -46.625
        -47.5 -48.25 -48.875 -49.375 -48.875 -48
        -48.375 -48.25 -47.75 -46.625 -44.875 -43.875
        -43.5 -43.5 -43.125 -42.75 -42.75 -42.625
        -42 -41.75 -41.75 -41.25 -41 -40.875
        -40.625 -40.875 -41.5 -41.875 -42 -41.375
        -40.875 -41.625 -42.25 -50.5 -50.375 -50.625
        -50.875 -51.125 -51.375 -51.125 -51.375 -51.75
        -50.125 -49.125 -49.75 -50.375 -49.75 -48.375
        -48.25 -47.5 -47 -47.125 -46.375 -46.25
        -46.125 -44.75 -43.625 -43.125 -42.875 -42.25
        -42 -42.25 -42.375 -42.125 -41.875 -42.125
        -42.125 -42.125 -42.375 -42.375 -43 -43.5
        -43.375 -43.75 -44.125 -44.375 -45.125 -45.75
        -45.25 -45.5 -45.625 -45.375 -46.625 -48
        -48 -48.375 -48.75 -46.625 -45 -45.375
        -45.375 -44.5 -43.5 -43.375 -43.375 -43.75
        -43.75 -43.75 -44.875 -46.25 -46.875 -47
        -46.875 -47.125 -47.25 -47.625 -48.25 -48.875
        -49.5 -49 -49 -49.5 -49.5 -49.625
        -49.625 -50 -50.375 -50.125 -50.25 -50.5
        -50.375 -50.625 -51 -40.75 -41.125 -41.25
        -41.5 -43.125 -44.5 -45.5 -46 -45.75
        -45.125 -44.25 -43.75 -43.375 -43.125 -42.625
        -42.5 -43 -43.125 -43.375 -43.875 -44.375
        -45.125 -45.75 -46 -46.125 -46.5 -46.625
        -47 -47.5 -47.875 -48.375 -48 -47.75
        -48.125 -48.125 -48 -48.625 -49.375 -49.5
        -49.75 -49.75 -49.375 -49.125 -48.875 -48.75
        -49 -48.5 -47.875 -48.125 -48.375 -48.375
        -48.625 -48.625 -48.5 -48.375 -47.75 -47.125
        -47 -46.875 -47 -47.25 -47.375 -45.5
        -43.75 -43.5 -41.875 -41.25 -41.375 -41
        -41.125 -40.875 -40.5 -40.75 -40.75 -40.625
        -40.75 -40.75 -41 -41.375 -41.5 -41.5
        -42.125 -42.75 -42.75 -43.25 -44 -44.25
        -45 -46.125 -46.5 -57.75 -57.25 -58.75
        -60.625 -60.375 -58.625 -56.625 -56.25 -55.375
        -54.5 -54.25 -54 -54 -53.75 -54.125
        -54.75 -54.375 -52.125 -50.25 -49.625 -47.5
        -46 -45.75 -43.75 -42 -41.625 -41.25
        -41.25 -40.375 -39.625 -39.25 -38.75 -38.75
        -38.75 -38.75 -38.75 -38.75 -38.75 -38.75
        -38.875 -39.625 -41.375 -43.25 -44.75 -45.5
        -53.5 -53.875 -57 -59.75 -59.75 -58.25
        -57.375 -58 -57.125 -56.25 -56.25 -56.375
        -56.5 -56.25 -56 -56 -55.625 -55
        -54.75 -54.375 -53.625 -53.25 -52.5 -50
        -48.25 -48 -47.5 -47.25 -46.625 -45.875
        -45.25 -44.5 -44.125 -43.875 -43.5 -43.375
        -43.5 -43.375 -43.25 -43.25 -43.375 -44.5
        -45.5 -45.125 -44.75 -47.5 -47.875 -49
        -49.75 -49.125 -48.5 -49 -48.75 -47.875
        -47.625 -47.5 -47.75 -47.875 -47.375 -47
        -47 -47 -46.75 -46.625 -46.5 -46.5
        -47.25 -46.75 -45.75 -45.75 -45.625 -45.5
        -45.5 -46.125 -46.75 -46.75 -48 -49.25
        -49.375 -48.375 -47.25 -47.375 -46.875 -46.25
        -46.375 -46.125 -45.75 -45.75 -45.5 -45.25
        -45.75 -45.375 -44.25 -43.5 -42.875 -42.25
        -42 -40.75 -39.625 -39.375 -39.125 -39.25
        -39.375 -38.875 -38.5 -38.5 -38.375 -38.875
        -39.75 -40 -41.5 -43.625 -44.125 -43.25
        -42.125 -42.125 -42.75 -43 -43.625 -43.625
        -43.125 -45.125 -47 -47.25 -47 -46.375
        -46.375 -46 -45.5 -45.625 -45.375 -45
        -45 -45.25 -45.5 -45.75 -45.25 -44.125
        -43.5 -43.875 -44.25 -44.125 -44.5 -45
        -45 -44.875 -45 -45.25 -45.75 -46.25
        -46.25 -46.75 -47.875 -48.5 -48.75 -50.125
        -51.375 -51.5 -50.75 -49.5 -49.375 -49.75
        -49.75 -49.625 -48.75 -47.625 -47.75 -48.125
        -48 -48.375 -48.75 -48.75 -48.75 -48.5
        -47.875 -47.5 -47.5 -47.25 -47 -47
        -46.75 -46.625 -45.75 -45 -45.375 -45.5
        -45.25 -46.25 -46.875 -46.125 -46.125 -46.5
        -47.25 -48.5 -48.25 -47.5 -48.125 -48.75
        -48.625 -47.875 -47.125 -46.875 -46.375 -46.125
        -46.25 -46.5 -46.5 -46.625 -46.625 -46.25
        -45.875 -45.625 -46.25 -47.5 -48.375 -48.625
        -49 -49.375 -49.25 -48.625 -48.5 -48.75
        -48.5 -48.375 -48.5 -47 -47.125 -46.25
        -45.375 -45.625 -45.5 -45.25 -45.5 -45.375
        -44.625 -44.75 -45.25 -46.25 -47.25 -47
        -46.75 -46.75 -47.5 -48.25 -47.5 -45.75
        -44.75 -44.125 -43 -42.5 -42.375 -41.125
        -40.375 -40.5 -39.875 -39.5 -39.375 -39.625
        -40.75 -41.5 -42.875 -44.125 -44.125 -44.25
        -43.875 -43.75 -43.875 -43.5 -43.5 -43.75
        -45.25 -45.375 -45.875 -46 -45.875 -45.75
        -45.25 -45.375 -45.75 -45.75 -46.25 -47
        -47.375 -47.625 -48.125 -48.625 -48.875 -49.75
        -50.5 -50.5 -49.5 -48.625 -48.75 -48
        -47.625 -47.625 -46.5 -46.375 -47 -46.25
        -45.25 -44.75 -43.75 -42.5 -41.875 -42.75
        -43.375 -43 -42 -40.625 -40.25 -39.875
        -39.25 -39 -39 -45 -45 -45.5
        -45.625 -45.25 -44.625 -43.375 -43.125 -43.125
        -42.75 -43.125 -43.5 -43.5 -43.5 -43.375
        -43.375 -44 -44.625 -44.75 -45.25 -45.75
        -45.875 -47.25 -48.375 -48.75 -49.75 -50.625
        -51.5 -51.875 -51.375 -50.375 -49.625 -49
        -47.75 -46.875 -46.5 -46.125 -46 -45
        -44 -44 -43.75 -43.5 -43.375 -43.25
        -41.75 -41.875 -41.875 -41.875 -41.875 -41
        -39.875 -39.375 -39.125 -39 -39 -39.125
        -39.375 -39.375 -39.625 -40 -40.375 -41.25
        -41.875 -42.5 -43.25 -43.5 -44.625 -45.75
        -45.75 -46.5 -47.5 -47.875 -47.875 -47.875
        -47.625 -47.25 -47.375 -47.375 -47.125 -47
        -46.875 -46.75 -47 -47.25 -47.25 -47.375
        -47.5 -47.5 -47.5 -37 -37.625 -38.125
        -38.125 -38.375 -38.125 -38 -38.75 -39.5
        -41.625 -43.5 -43.875 -44.625 -43.875 -42.375
        -42 -42 -42.375 -43 -43.25 -43.625
        -44 -44.25 -44.25 -44.125 -44.125 -44.125
        -44.25 -44.25 -44.5 -44.625 -44.25 -44.125
        -44.375 -44.5 -44.5 -44.5 -44.375 -44.5
        -44.5 -44.875 -45.625 -45.375 -46.75 -48.5
        -33.5 -34 -39.375 -44.25 -43.375 -41.125
        -39.875 -40.25 -40.5 -42.375 -44.25 -44.125
        -44.375 -43.625 -41.75 -40.875 -40.875 -40.875
        -40.875 -41 -41.25 -41.5 -41.5 -41.375
        -41.5 -41.375 -41.25 -41.25 -41 -41.75
        -42.375 -42.125 -43.625 -45.125 -45.125 -42.25
        -39.25 -39.375 -39.75 -40.25 -41.125 -41.875
        -43.875 -47.75 -49.75 -30 -30.125 -35.125
        -40 -39 -36.625 -35.875 -36.25 -36
        -36 -36 -35.875 -35.75 -35.625 -35.25
        -35.25 -35.625 -35.375 -35.625 -36.25 -36
        -36.125 -36.375 -36.75 -37.375 -37.375 -37.625
        -37.875 -37.625 -38.25 -38.875 -38.875 -41
        -42.875 -42.875 -40.125 -37.125 -37.625 -38.5
        -39.25 -39.75 -39.875 -42.25 -45.25 -46
        -38.25 -37.5 -36.75 -36.75 -36.125 -35.5
        -36.125 -36.5 -36.25 -36.125 -35.875 -35.75
        -35.5 -35.125 -34.75 -35 -35.5 -35.625
        -36.375 -36.875 -37 -37.625 -38 -38.875
        -39.75 -39.75 -40.375 -40.875 -40.625 -40.875
        -41 -41.25 -42 -42.375 -42.875 -43.25
        -43.125 -42.625 -42.25 -42.25 -41.75 -41.25
        -41.25 -41.625 -42 -46.5 -45.625 -45.5
        -46.25 -45.5 -45 -45.125 -44.375 -44
        -44 -43.25 -42.75 -42.5 -42.375 -42.5
        -42.375 -42.375 -42.875 -43.125 -42.875 -43.375
        -44 -44 -44.5 -44.75 -44.5 -44.75
        -45 -45 -44.875 -44.625 -45 -45
        -44.625 -45.25 -45.25 -44.75 -44.25 -43.375
        -43 -42.5 -42.125 -42.25 -42.25 -42.25
        -42.75 -42.75 -43.5 -44.25 -44.25 -44.5
        -44.75 -44.5 -44.375 -44.375 -43.875 -43.375
        -43.25 -43.375 -43.375 -43.125 -43.125 -43.25
        -43.375 -43.5 -43.5 -43.5 -43.375 -43.625
        -43.75 -43.375 -43.5 -43.75 -43.625 -43.5
        -43.5 -43.5 -43.375 -43.25 -43.875 -44.125
        -43.5 -43.75 -43.875 -43.5 -43.125 -42.875
        -43.125 -42.875 -42.5 -39 -39 -38.875
        -38.875 -38.875 -38.75 -38.75 -38.75 -38.625
        -38.5 -38.5 -38.375 -38.25 -38.25 -37.75
        -37.375 -37 -36.5 -36.75 -36.375 -35.75
        -35.75 -34.875 -34.375 -34.125 -33.375 -33.625
        -34 -33.875 -34.125 -34.625 -34.625 -35
        -35.5 -36 -37 -37.125 -37 -37.625
        -38 -37.75 -37.875 -38.5 -38.625 -38.5
        -31.75 -31.75 -31.5 -31.375 -31.375 -31.25
        -31.25 -31.25 -31.25 -34 -36.75 -36.75
        -36.75 -36.75 -36.375 -36 -35.5 -35
        -34.875 -34.125 -33.5 -33.5 -32.75 -32.25
        -31.875 -31.375 -31.5 -31.5 -31.375 -31.25
        -31.375 -31.125 -31 -31.25 -31.25 -31.75
        -32.125 -32.375 -33.125 -33.375 -33.375 -33.875
        -34.125 -34.25 -34.5 -24.5 -25 -25.375
        -25.375 -28.625 -31.75 -32.125 -31.875 -31.25
        -34.375 -37.375 -37.125 -37.75 -38.5 -38.5
        -38.75 -39.125 -39.25 -39.125 -39 -39.125
        -39.25 -39.25 -39.75 -40.25 -40.375 -40.625
        -40.75 -40.75 -40.875 -41 -40.75 -40.5
        -40.5 -40.875 -41.25 -41.125 -38.875 -36.75
        -36.25 -35.875 -36 -35.625 -35.25 -35.25
        -24.25 -24.75 -25.125 -25.125 -28.375 -31.5
        -31.875 -31.625 -31 -31.375 -31.625 -31.375
        -31.625 -32 -32 -32.25 -32.625 -32.75
        -32.75 -32.75 -33 -33.25 -33.25 -33.5
        -33.875 -33.875 -34 -34.5 -35 -35.875
        -36.5 -36.625 -37.25 -37.625 -37.875 -38.875
        -39.375 -36.75 -34.625 -34.625 -34.75 -35.375
        -35.375 -35.625 -36 -24 -24 -23.75
        -23.5 -23.5 -23.5 -23.5 -23.5 -23.5
        -23.5 -23.5 -23.5 -22.75 -22 -22
        -22 -22 -22 -22 -22 -22.25
        -22.5 -22.5 -22.5 -22.75 -22.75 -22.75
        -23.5 -24.25 -25.5 -26.5 -26.75 -28
        -28.75 -28.5 -29.75 -31 -31 -31.75
        -32.5 -33.25 -34.25 -34.5 -35.25 -36
        -49 -49 -49 -49.5 -50 -49.5
        -49.5 -50 -50 -50 -50 -50
        -50 -50 -50 -50 -50 -49.5
        -49.5 -50.5 -51 -50.5 -50.5 -51
        -51 -51.5 -52 -52.5 -53.5 -54
        -54 -54 -54 -52.5 -51 -51.5
        -50 -48 -48 -46.5 -45 -45
        -45 -45 -45 -49.5 -49.75 -50
        -50.25 -50.75 -50.75 -50.75 -50.75 -50.5
        -50.5 -50.5 -50.5 -50.25 -49.75 -49.5
        -49.5 -49.75 -49.75 -49.75 -50.5 -51
        -50.75 -50.75 -51 -50.5 -50.5 -51
        -50.75 -50.75 -51 -51 -51 -51