<VTKFile type="ImageData" version="0.1" byte_order="LittleEndian">
  <ImageData WholeExtent="0 44 0 42 0 2" Origin="0 0 0" Spacing="1 1 1">
  <Piece Extent="0 44 0 42 0 2">
    <PointData>
    </PointData>
    <CellData Scalars="Amplitude">
      <DataArray type="Float32" Name="Amplitude" format="ascii" RangeMin="-78" RangeMax="-21">
        -48 -48 -48 -48 -48 -48
        -48 -48 -47 -45 -45 -45
        -45 -45 -42 -42 -42 -39
        -39 -39 -39 -39 -39 -38
        -38 -39 -39 -39 -44 -44
        -45 -50 -50 -55 -55 -55
        -51 -51 -51 -48 -48 -48
        -48 -48 -31 -31 -35 -35
        -35 -38 -38 -39 -40 -40
        -43 -43 -43 -45 -45 -45
        -47 -47 -47 -48 -48 -48
        -48 -48 -48 -48 -48 -48
        -48 -48 -48 -48 -48 -48
        -48 -48 -47 -48 -47 -48
        -47 -48 -48 -48 -31 -30
        -30 -29 -27 -27 -27 -27
        -27 -27 -27 -27 -30 -30
        -30 -35 -34 -35 -45 -45
        -57 -52 -52 -44 -42 -42
        -39 -39 -39 -38 -38 -38
        -37 -37 -36 -36 -36 -37
        -37 -38 -39 -39 -40 -39
        -48 -48 -48 -48 -48 -48
        -48 -46 -45 -46 -43 -44
        -44 -39 -39 -38 -36 -36
        -33 -33 -33 -30 -30 -30
        -27 -27 -27 -27 -27 -28
        -29 -28 -30 -30 -30 -36
        -36 -45 -51 -51 -46 -46
        -46 -40 -48 -48 -48 -48
        -48 -48 -48 -48 -48 -47
        -47 -47 -47 -46 -46 -46
        -46 -46 -47 -46 -46 -46
        -47 -47 -48 -47 -48 -48
        -48 -50 -50 -51 -52 -52
        -49 -49 -49 -44 -44 -44
        -39 -39 -39 -39 -40 -43
        -43 -43 -45 -45 -45 -46
        -45 -46 -47 -47 -48 -48
        -48 -48 -48 -48 -48 -48
        -48 -48 -48 -48 -47 -48
        -46 -46 -45 -45 -45 -44
        -44 -44 -40 -41 -41 -39
        -39 -39 -38 -38 -38 -39
        -41 -49 -49 -48 -46 -46
        -46 -42 -42 -42 -39 -39
        -38 -37 -37 -36 -36 -37
        -39 -39 -38 -39 -39 -39
        -42 -42 -43 -44 -44 -45
        -45 -45 -45 -45 -45 -45
        -45 -46 -46 -46 -46 -46
        -46 -45 -48 -48 -48 -48
        -48 -48 -49 -49 -49 -48
        -49 -49 -45 -45 -45 -41
        -41 -39 -39 -39 -36 -36
        -36 -36 -36 -37 -39 -39
        -39 -39 -39 -42 -42 -42
        -44 -44 -44 -45 -45 -45
        -45 -45 -45 -45 -48 -48
        -47 -47 -46 -46 -46 -45
        -45 -45 -45 -45 -45 -45
        -45 -45 -45 -45 -45 -45
        -45 -45 -45 -45 -45 -45
        -45 -45 -45 -45 -45 -45
        -45 -45 -45 -45 -45 -45
        -43 -43 -43 -39 -39 -36
        -42 -42 -42 -41 -41 -41
        -40 -40 -40 -40 -40 -39
        -39 -39 -39 -39 -39 -39
        -39 -41 -42 -42 -45 -46
        -45 -57 -57 -57 -40 -40
        -39 -33 -33 -31 -31 -31
        -30 -30 -30 -30 -31 -30
        -34 -34 -45 -45 -50 -57
        -57 -42 -41 -41 -35 -35
        -34 -33 -32 -31 -31 -31
        -32 -32 -31 -35 -35 -35
        -39 -39 -42 -44 -44 -45
        -45 -45 -45 -45 -45 -44
        -44 -44 -44 -44 -44 -44
        -44 -44 -44 -44 -30 -30
        -29 -29 -28 -28 -28 -28
        -28 -28 -28 -28 -30 -30
        -30 -33 -33 -33 -36 -36
        -36 -49 -48 -48 -48 -48
        -48 -48 -47 -47 -46 -45
        -45 -45 -45 -45 -45 -45
        -45 -45 -45 -45 -45 -44
        -30 -30 -30 -30 -30 -30
        -30 -31 -31 -32 -33 -33
        -33 -33 -33 -33 -33 -33
        -33 -34 -34 -34 -34 -34
        -34 -34 -33 -34 -34 -33
        -33 -33 -33 -33 -33 -33
        -33 -32 -31 -32 -31 -31
        -31 -31 -42 -44 -44 -44
        -45 -45 -45 -45 -45 -45
        -45 -45 -45 -45 -45 -44
        -44 -43 -42 -42 -40 -40
        -41 -39 -39 -39 -39 -39
        -39 -39 -38 -38 -37 -37
        -36 -36 -36 -33 -33 -33
        -33 -32 -32 -31 -42 -42
        -40 -40 -40 -39 -39 -39
        -38 -38 -37 -37 -37 -37
        -37 -37 -36 -36 -35 -35
        -35 -33 -33 -33 -31 -31
        -31 -30 -30 -30 -30 -30
        -30 -30 -30 -31 -31 -31
        -33 -32 -33 -33 -33 -33
        -35 -31 -31 -30 -30 -30
        -28 -28 -28 -27 -27 -27
        -27 -27 -27 -28 -28 -29
        -29 -29 -30 -30 -30 -30
        -30 -30 -30 -30 -31 -31
        -31 -32 -33 -33 -33 -33
        -33 -33 -33 -33 -33 -33
        -33 -33 -36 -35 -38 -38
        -38 -38 -38 -38 -39 -39
        -39 -43 -42 -48 -48 -48
        -46 -46 -46 -45 -45 -45
        -45 -45 -45 -45 -45 -45
        -45 -45 -44 -45 -45 -45
        -45 -45 -45 -45 -48 -48
        -48 -45 -45 -45 -42 -42
        -42 -42 -43 -42 -43 -42
        -42 -42 -43 -43 -45 -45
        -45 -48 -48 -48 -50 -51
        -50 -42 -42 -39 -39 -39
        -36 -36 -36 -35 -35 -35
        -33 -33 -33 -33 -33 -36
        -35 -36 -36 -36 -36 -40
        -42 -42 -42 -42 -44 -44
        -44 -48 -48 -48 -51 -51
        -50 -42 -42 -39 -39 -39
        -36 -36 -36 -36 -35 -35
        -34 -34 -33 -34 -34 -36
        -36 -36 -39 -39 -39 -40
        -40 -42 -42 -42 -44 -44
        -44 -45 -39 -45 -44 -44
        -53 -53 -55 -54 -54 -50
        -50 -50 -49 -49 -49 -51
        -51 -51 -52 -52 -54 -54
        -54 -54 -54 -54 -54 -54
        -54 -54 -54 -51 -51 -51
        -49 -49 -49 -48 -48 -47
        -46 -46 -45 -45 -39 -39
        -38 -39 -37 -36 -37 -36
        -36 -36 -36 -36 -36 -36
        -36 -36 -37 -37 -39 -39
        -39 -42 -42 -42 -44 -44
        -44 -45 -45 -45 -45 -45
        -45 -46 -46 -45 -45 -45
        -45 -45 -44 -42 -42 -39
        -60 -57 -57 -56 -57 -56
        -54 -54 -54 -54 -54 -57
        -57 -57 -63 -63 -63 -48
        -48 -48 -42 -42 -39 -39
        -39 -37 -37 -37 -36 -36
        -36 -36 -36 -36 -36 -36
        -36 -36 -36 -37 -37 -38
        -39 -39 -63 -63 -78 -78
        -78 -66 -66 -66 -57 -57
        -57 -56 -56 -54 -54 -54
        -51 -51 -51 -49 -49 -48
        -48 -36 -36 -36 -36 -36
        -36 -36 -36 -36 -36 -36
        -36 -38 -38 -38 -39 -39
        -39 -50 -50 -50 -46 -48
        -54 -54 -54 -54 -57 -57
        -57 -57 -57 -59 -59 -59
        -59 -59 -59 -57 -57 -57
        -57 -57 -57 -57 -57 -57
        -55 -55 -55 -55 -54 -54
        -54 -54 -54 -54 -54 -54
        -54 -54 -54 -54 -54 -51
        -46 -46 -46 -46 -43 -43
        -43 -37 -36 -36 -36 -36
        -36 -33 -33 -33 -33 -33
        -34 -33 -35 -36 -36 -35
        -36 -37 -37 -37 -41 -41
        -41 -53 -53 -53 -47 -45
        -46 -42 -42 -42 -39 -39
        -39 -39 -39 -39 -33 -33
        -33 -33 -33 -33 -33 -33
        -33 -35 -35 -35 -35 -35
        -35 -39 -41 -42 -51 -54
        -54 -47 -45 -45 -45 -45
        -45 -39 -39 -39 -39 -39
        -39 -39 -39 -39 -39 -39
        -39 -39 -39 -39 -39 -39
        -39 -39 -42 -42 -42 -48
        -48 -48 -48 -48 -48 -52
        -52 -52 -57 -57 -57 -57
        -57 -57 -57 -57 -57 -58
        -58 -58 -57 -57 -57 -57
        -57 -57 -57 -57 -57 -57
        -56 -55 -55 -55 -55 -54
        -53 -52 -45 -45 -44 -42
        -42 -42 -39 -36 -36 -36
        -36 -36 -36 -36 -36 -36
        -36 -36 -36 -36 -36 -37
        -38 -39 -38 -40 -40 -40
        -40 -40 -45 -51 -51 -51
        -54 -54 -54 -54 -54 -54
        -54 -54 -53 -53 -53 -53
        -54 -54 -54 -54 -54 -54
        -54 -54 -54 -54 -54 -54
        -54 -54 -54 -54 -53 -53
        -51 -50 -50 -48 -42 -42
        -42 -42 -42 -41 -39 -39
        -39 -39 -39 -39 -39 -39
        -39 -39 -39 -39 -39 -39
        -43 -43 -43 -43 -42 -45
        -45 -45 -48 -50 -50 -50
        -50 -51 -51 -51 -51 -51
        -51 -51 -51 -50 -51 -50
        -51 -50 -50 -47 -47 -47
        -45 -45 -45 -45 -45 -45
        -39 -39 -39 -39 -39 -39
        -39 -39 -39 -39 -39 -39
        -39 -39 -39 -39 -39 -39
        -39 -39 -39 -39 -42 -42
        -42 -45 -45 -45 -48 -48
        -48 -51 -52 -51 -52 -52
        -52 -52 -52 -52 -51 -51
        -51 -51 -51 -51 -51 -51
        -51 -51 -31 -32 -32 -33
        -33 -31 -31 -31 -33 -33
        -33 -36 -36 -36 -39 -39
        -39 -42 -43 -43 -45 -45
        -45 -45 -45 -46 -46 -48
        -48 -48 -48 -48 -48 -49
        -49 -49 -49 -49 -50 -51
        -50 -50 -51 -51 -31 -33
        -33 -33 -35 -35 -35 -39
        -39 -54 -54 -54 -54 -45
        -39 -39 -39 -39 -39 -39
        -39 -39 -39 -38 -39 -38
        -39 -38 -38 -39 -38 -38
        -38 -38 -39 -39 -39 -39
        -39 -39 -44 -44 -44 -57
        -24 -24 -63 -63 -54 -43
        -42 -39 -39 -39 -39 -38
        -38 -38 -38 -38 -38 -38
        -38 -38 -38 -38 -38 -38
        -39 -38 -39 -39 -39 -44
        -44 -45 -58 -57 -58 -33
        -33 -35 -35 -39 -39 -39
        -57 -57 -24 -24 -24 -24
        -24 -24 -30 -30 -30 -30
        -30 -30 -30 -30 -30 -34
        -34 -34 -39 -39 -39 -42
        -42 -45 -45 -45 -48 -48
        -48 -48 -48 -48 -51 -51
        -51 -52 -51 -54 -54 -54
        -54 -54 -54 -57 -43 -41
        -41 -41 -39 -39 -39 -39
        -39 -39 -39 -39 -39 -39
        -39 -42 -42 -45 -46 -45
        -50 -50 -50 -54 -54 -54
        -57 -57 -57 -59 -59 -63
        -63 -63 -66 -66 -66 -60
        -60 -60 -57 -57 -57 -57
        -43 -43 -45 -45 -45 -48
        -48 -50 -51 -51 -51 -51
        -51 -53 -53 -53 -54 -54
        -54 -54 -54 -54 -54 -54
        -52 -52 -51 -51 -51 -48
        -48 -48 -45 -45 -45 -42
        -42 -42 -39 -39 -39 -39
        -39 -37 -48 -48 -48 -48
        -48 -48 -48 -48 -47 -47
        -47 -46 -46 -46 -45 -45
        -45 -45 -45 -45 -45 -45
        -44 -44 -44 -43 -43 -43
        -42 -42 -42 -39 -39 -39
        -38 -38 -36 -36 -36 -36
        -36 -36 -38 -37 -48 -48
        -48 -48 -48 -48 -48 -48
        -48 -48 -48 -48 -48 -48
        -45 -45 -42 -42 -42 -36
        -36 -36 -30 -30 -24 -24
        -24 -24 -24 -24 -24 -23
        -23 -23 -23 -24 -23 -23
        -23 -23 -24 -23 -24 -24
        -24 -24 -24 -24 -24 -24
        -24 -24 -24 -24 -24 -24
        -23 -23 -23 -22 -22 -22
        -21 -21 -21 -21 -21 -21
        -21 -21 -21 -21 -21 -21
        -21 -21 -21 -21 -21 -21
        -21 -24 -24 -24 -24 -24
        -24 -24 -24 -24 -24 -24
        -47 -46 -46 -41 -41 -40
        -39 -39 -39 -39 -39 -39
        -39 -39 -39 -39 -39 -39
        -39 -39 -39 -39 -39 -39
        -39 -39 -39 -39 -39 -39
        -44 -44 -44 -24 -24 -24
        -24 -24 -24 -24 -24 -24
        -24 -24 -24 -24 -24 -24
        -24 -24 -24 -24 -21 -21
        -21 -21 -21 -21 -21 -21
        -21 -21 -21 -21 -21 -21
        -21 -21 -22 -23 -23 -24
        -24 -24 -24 -24 -24 -24
        -24 -24 -24 -24 -24 -24
        -49 -49 -49 -50 -50 -49
        -50 -50 -50 -50 -50 -50
        -50 -50 -50 -50 -50 -49
        -50 -51 -51 -50 -51 -51
        -51 -52 -52 -53 -54 -54
        -54 -54 -54 -51 -51 -52
        -48 -48 -48 -45 -45 -45
        -45 -45 -50 -51 -51 -51
        -52 -52 -52 -51 -51 -51
        -51 -51 -50 -49 -49 -49
        -50 -50 -50 -51 -51 -51
        -51 -51 -49 -50 -50 -48
        -48 -48 -48 -48 -48 -47
        -46 -45 -45 -45 -45 -45
        -45 -44 -44 -44 -50 -50
        -48 -47 -45 -45 -45 -43
        -42 -43 -42 -42 -42 -41
        -41 -42 -42 -42 -43 -43
        -43 -45 -45 -45 -45 -45
        -46 -46 -46 -47 -47 -47
        -48 -48 -48 -48 -48 -48
        -48 -48 -47 -47 -47 -46
        -51 -51 -51 -52 -52 -52
        -52 -52 -52 -51 -51 -51
        -48 -48 -48 -45 -46 -44
        -44 -44 -42 -42 -42 -41
        -41 -40 -40 -40 -41 -42
        -41 -42 -42 -42 -44 -44
        -44 -45 -45 -45 -45 -45
        -46 -46 -51 -51 -48 -48
        -48 -48 -48 -48 -47 -48
        -47 -46 -46 -45 -45 -45
        -45 -45 -45 -45 -45 -45
        -45 -45 -45 -45 -45 -45
        -45 -45 -45 -45 -45 -45
        -45 -45 -45 -45 -41 -42
        -42 -39 -39 -39 -57 -57
        -57 -50 -50 -48 -46 -46
        -45 -45 -45 -45 -45 -45
        -44 -44 -44 -45 -45 -45
        -45 -45 -48 -48 -48 -55
        -55 -55 -52 -53 -48 -43
        -44 -39 -39 -39 -36 -36
        -36 -36 -36 -36 -36 -36
        -51 -51 -51 -44 -44 -42
        -39 -39 -38 -38 -39 -38
        -37 -38 -39 -39 -39 -41
        -41 -42 -44 -44 -45 -45
        -45 -44 -44 -45 -43 -43
        -43 -42 -43 -43 -42 -43
        -43 -42 -43 -43 -43 -43
        -44 -44 -33 -33 -33 -33
        -33 -33 -33 -33 -33 -33
        -33 -33 -34 -34 -36 -36
        -36 -38 -38 -38 -40 -41
        -41 -42 -42 -43 -43 -43
        -45 -45 -45 -48 -48 -48
        -51 -46 -46 -46 -45 -45
        -45 -45 -45 -45 -34 -34
        -34 -35 -35 -36 -36 -36
        -36 -36 -36 -37 -36 -37
        -38 -38 -38 -39 -38 -38
        -38 -39 -38 -38 -38 -37
        -37 -36 -36 -36 -36 -36
        -36 -36 -36 -36 -36 -36
        -36 -36 -36 -36 -36 -36
        -44 -44 -43 -45 -45 -45
        -45 -45 -45 -46 -46 -46
        -46 -46 -45 -45 -45 -45
        -45 -45 -44 -44 -43 -43
        -43 -42 -42 -42 -42 -41
        -40 -40 -41 -40 -40 -40
        -39 -39 -39 -39 -39 -37
        -38 -38 -42 -42 -42 -42
        -42 -41 -41 -40 -40 -40
        -40 -40 -40 -40 -39 -39
        -39 -39 -39 -39 -38 -38
        -36 -36 -36 -36 -36 -36
        -36 -36 -36 -36 -36 -36
        -36 -36 -36 -36 -36 -36
        -36 -36 -37 -37 -39 -39
        -38 -38 -38 -36 -36 -36
        -34 -34 -33 -33 -33 -33
        -33 -33 -33 -33 -33 -33
        -33 -33 -34 -34 -35 -35
        -35 -36 -36 -36 -36 -36
        -36 -37 -37 -37 -38 -38
        -38 -38 -38 -38 -38 -38
        -40 -42 -42 -44 -44 -44
        -45 -45 -45 -49 -48 -50
        -52 -52 -51 -51 -51 -48
        -48 -48 -48 -48 -48 -48
        -48 -47 -47 -48 -48 -48
        -48 -45 -44 -44 -44 -42
        -42 -42 -42 -42 -41 -41
        -41 -39 -48 -46 -46 -46
        -46 -46 -46 -47 -47 -47
        -47 -47 -48 -48 -48 -50
        -50 -53 -54 -54 -54 -53
        -54 -48 -48 -46 -45 -45
        -42 -42 -42 -39 -39 -39
        -39 -39 -39 -39 -39 -39
        -39 -39 -39 -39 -48 -48
        -49 -50 -54 -54 -54 -53
        -53 -53 -48 -48 -48 -45
        -45 -45 -42 -42 -41 -39
        -39 -39 -39 -39 -39 -39
        -39 -39 -39 -40 -42 -41
        -42 -42 -42 -44 -44 -44
        -45 -45 -45 -45 -45 -46
        -45 -45 -44 -47 -47 -48
        -51 -51 -54 -54 -54 -54
        -54 -54 -54 -54 -54 -54
        -54 -54 -54 -54 -55 -54
        -54 -54 -54 -54 -54 -54
        -54 -53 -53 -51 -51 -51
        -50 -50 -50 -48 -48 -48
        -47 -48 -42 -42 -42 -40
        -41 -40 -39 -39 -39 -39
        -39 -39 -39 -39 -41 -41
        -42 -42 -43 -45 -45 -45
        -45 -45 -45 -47 -47 -48
        -48 -48 -48 -48 -48 -47
        -47 -46 -45 -45 -45 -45
        -45 -42 -42 -43 -60 -60
        -63 -63 -63 -63 -63 -63
        -63 -63 -63 -64 -65 -63
        -62 -62 -56 -56 -56 -50
        -51 -50 -45 -45 -45 -43
        -43 -42 -42 -42 -39 -40
        -40 -39 -39 -39 -39 -39
        -39 -39 -39 -40 -41 -41
        -58 -57 -57 -56 -56 -56
        -54 -54 -54 -41 -42 -41
        -44 -44 -44 -44 -44 -46
        -46 -46 -50 -54 -54 -54
        -54 -55 -55 -57 -57 -57
        -57 -57 -57 -57 -58 -58
        -57 -58 -57 -57 -57 -57
        -57 -57 -42 -39 -39 -39
        -39 -39 -39 -39 -39 -39
        -39 -39 -39 -39 -39 -39
        -40 -40 -40 -42 -43 -43
        -45 -45 -45 -47 -46 -48
        -48 -51 -51 -50 -51 -51
        -52 -52 -52 -54 -54 -54
        -55 -55 -55 -57 -43 -43
        -43 -46 -48 -51 -54 -54
        -54 -53 -51 -49 -49 -48
        -45 -45 -45 -44 -44 -43
        -43 -43 -43 -43 -42 -42
        -42 -43 -43 -43 -44 -44
        -45 -45 -45 -46 -51 -51
        -51 -54 -53 -54 -54 -54
        -54 -53 -53 -53 -51 -51
        -50 -50 -50 -50 -48 -46
        -46 -46 -45 -45 -45 -45
        -45 -42 -39 -40 -40 -40
        -40 -39 -39 -39 -38 -39
        -38 -38 -39 -39 -39 -39
        -39 -39 -39 -39 -43 -43
        -48 -54 -54 -54 -55 -55
        -55 -55 -55 -55 -57 -57
        -57 -57 -57 -57 -57 -57
        -57 -57 -57 -57 -54 -54
        -55 -53 -53 -53 -53 -53
        -48 -48 -45 -45 -44 -44
        -44 -42 -42 -42 -41 -41
        -42 -39 -39 -39 -51 -52
        -52 -52 -52 -52 -54 -54
        -54 -54 -54 -54 -54 -54
        -54 -54 -54 -54 -54 -53
        -53 -54 -47 -47 -47 -45
        -45 -45 -45 -44 -44 -42
        -42 -41 -39 -40 -40 -39
        -39 -39 -39 -39 -39 -39
        -47 -47 -47 -47 -45 -45
        -44 -44 -44 -43 -43 -43
        -42 -42 -42 -42 -42 -42
        -42 -42 -42 -44 -43 -44
        -43 -43 -45 -45 -46 -47
        -48 -48 -48 -50 -49 -50
        -50 -50 -50 -51 -51 -51
        -51 -52 -51 -48 -48 -48
        -48 -48 -47 -45 -45 -45
        -44 -44 -44 -44 -44 -44
        -43 -44 -43 -43 -44 -43
        -43 -44 -43 -45 -45 -45
        -45 -45 -45 -48 -48 -48
        -51 -51 -51 -51 -51 -51
        -51 -51 -51 -52 -54 -53
        -54 -54 -54 -54 -54 -54
        -54 -54 -54 -54 -54 -54
        -54 -54 -54 -54 -53 -54
        -53 -52 -52 -52 -51 -51
        -51 -51 -51 -51 -48 -49
        -48 -48 -48 -48 -48 -48
        -47 -45 -45 -45 -43 -43
        -41 -42 -42 -42 -43 -43
        -43 -45 -45 -45 -48 -48
        -54 -54 -48 -48 -48 -48
        -48 -42 -42 -42 -39 -39
        -39 -39 -38 -39 -37 -37
        -37 -37 -37 -37 -38 -39
        -38 -39 -39 -39 -41 -41
        -41 -43 -41 -42 -41 -42
        -42 -42 -42 -42 -42 -42
        -43 -43 -45 -45 -49 -49
        -49 -55 -55 -55 -48 -48
        -48 -44 -43 -43 -42 -42
        -42 -39 -39 -39 -39 -39
        -38 -48 -45 -45 -45 -42
        -42 -41 -39 -39 -48 -48
        -48 -45 -45 -43 -42 -42
        -42 -42 -42 -42 -41 -42
        -41 -41 -42 -42 -42 -42
        -42 -43 -45 -45 -48 -48
        -48 -54 -54 -54 -52 -51
        -49 -45 -45 -43 -43 -43
        -41 -41 -41 -39 -39 -39
        -54 -54 -54 -54 -54 -51
        -48 -48 -45 -45 -45 -43
        -44 -43 -43 -43 -43 -44
        -44 -45 -45 -45 -50 -50
        -50 -52 -53 -53 -51 -51
        -48 -48 -48 -46 -46 -46
        -45 -45 -45 -45 -45 -45
        -45 -44 -43 -43 -42 -42
        -41 -40 -40 -39 -39 -39
        -39 -39 -39 -39 -39 -39
        -39 -39 -39 -39 -39 -39
        -40 -40 -40 -40 -40 -40
        -40 -41 -41 -41 -42 -42
        -42 -42 -42 -42 -43 -42
        -43 -44 -43 -44 -43 -45
        -45 -45 -45 -45 -47 -48
        -48 -48 -48 -48 -51 -51
        -51 -51 -51 -51 -52 -52
        -53 -53 -54 -53 -53 -52
        -52 -51 -51 -51 -51 -49
        -49 -49 -48 -48 -48 -47
        -47 -45 -45 -45 -42 -42
        -36 -36 -36 -36 -36 -36
        -36 -36 -36 -36 -36 -36
        -36 -36 -36 -35 -36 -35
        -35 -35 -36 -36 -35 -36
        -36 -36 -36 -36 -36 -36
        -36 -36 -36 -36 -36 -37
        -37 -37 -39 -39 -39 -40
        -40 -43 -36 -37 -37 -37
        -38 -38 -38 -39 -39 -39
        -39 -39 -39 -38 -36 -35
        -35 -33 -33 -33 -30 -30
        -30 -30 -30 -30 -29 -28
        -27 -28 -27 -27 -27 -27
        -27 -27 -27 -27 -27 -27
        -27 -27 -27 -27 -50 -45
        -45 -45 -41 -41 -40 -37
        -37 -36 -35 -35 -33 -33
        -33 -31 -31 -31 -30 -30
        -30 -30 -30 -30 -30 -30
        -30 -30 -30 -30 -29 -29
        -28 -29 -29 -28 -28 -28
        -28 -28 -27 -27 -27 -27
        -50 -50 -54 -54 -54 -53
        -53 -49 -50 -49 -46 -46
        -46 -45 -45 -43 -43 -43
        -42 -42 -42 -42 -42 -42
        -42 -42 -42 -42 -42 -42
        -42 -42 -42 -42 -43 -43
        -43 -45 -45 -45 -45 -46
        -46 -48 -30 -30 -30 -30
        -30 -30 -30 -30 -30 -30
        -30 -30 -30 -30 -30 -31
        -31 -31 -33 -33 -33 -33
        -33 -36 -36 -36 -39 -39
        -39 -42 -42 -45 -47 -47
        -52 -52 -52 -54 -54 -54
        -51 -51 -50 -48 -30 -30
        -29 -30 -29 -29 -29 -29
        -29 -29 -29 -29 -29 -29
        -29 -29 -28 -28 -28 -29
        -29 -29 -29 -29 -30 -30
        -30 -30 -30 -30 -31 -31
        -33 -33 -33 -36 -36 -36
        -39 -39 -39 -43 -43 -45
        -25 -25 -24 -24 -24 -24
        -24 -24 -24 -46 -46 -46
        -47 -47 -47 -48 -48 -48
        -48 -48 -48 -48 -48 -50
        -50 -51 -51 -51 -50 -50
        -50 -48 -48 -48 -48 -48
        -48 -48 -48 -47 -47 -47
        -45 -45 -25 -29 -29 -30
        -32 -33 -36 -36 -36 -40
        -40 -39 -45 -45 -45 -47
        -48 -48 -48 -48 -49 -49
        -49 -51 -51 -51 -52 -52
        -53 -54 -54 -54 -54 -54
        -52 -52 -51 -51 -51 -48
        -49 -49 -48 -48 -24 -24
        -23 -23 -23 -23 -23 -23
        -23 -23 -23 -23 -23 -23
        -23 -23 -23 -23 -23 -23
        -24 -24 -24 -24 -25 -24
        -25 -27 -27 -30 -30 -30
        -34 -33 -33 -38 -38 -38
        -41 -41 -44 -45 -45 -48
      </DataArray>
    </CellData>
  </Piece>
  </ImageData>
</VTKFile>
