<VTKFile type="ImageData" version="0.1" byte_order="LittleEndian">
  <ImageData WholeExtent="0 4 0 4 0 4" Origin="0 0 0" Spacing="1 1 1">
  <Piece Extent="0 4 0 4 0 4">
    <PointData>
    </PointData>
    <CellData Scalars="Amplitude">
      <DataArray type="Float32" Name="Amplitude" format="ascii" RangeMin="-103.30269623" RangeMax="-76.663063049">
        -89.431037903 -90.919509888 -87.435913086 -92.963768005 -90.067611694 -92.648323059
        -83.451171875 -81.259437561 -85.655471802 -79.598716736 -83.519767761 -79.511398315
        -78.735153198 -83.539428711 -94.87021637 -82.013633728 -82.643547058 -86.508422852
        -81.6434021 -103.30269623 -97.634803772 -77.261627197 -88.148666382 -79.900779724
        -77.737350464 -87.688751221 -86.532730103 -103.29550171 -82.681869507 -82.55771637
        -84.342048645 -102.04070282 -84.939796448 -85.919113159 -86.637123108 -89.236686707
        -82.316802979 -76.663063049 -79.256866455 -85.72593689 -79.691673279 -79.317253113
        -89.256271362 -81.893806458 -86.047332764 -81.394500732 -90.605186462 -79.513206482
        -80.301231384 -90.60975647 -89.504081726 -80.359741211 -92.29460144 -88.319610596
        -82.72454071 -82.775810242 -86.084793091 -87.78237915 -92.475196838 -83.720451355
        -84.29208374 -84.604553223 -94.161392212 -80.684913635
      </DataArray>
    </CellData>
  </Piece>
  </ImageData>
</VTKFile>
