<VTKFile type="ImageData" version="0.1" byte_order="LittleEndian">
  <ImageData WholeExtent="-5 6 -4 8 -2 0" Origin="0 0 0" Spacing="1 1 1">
  <Piece Extent="-5 6 -4 8 -2 0">
    <PointData>
    </PointData>
    <CellData Scalars="Amplitude">
      <DataArray type="Float32" Name="Amplitude" format="ascii" RangeMin="-105.99140167" RangeMax="-74.780509949">
        -97.209243774 -88.830352783 -85.264266968 -79.230667114 -86.636322021 -84.699172974
        -81.610046387 -85.918632507 -82.260559082 -81.740760803 -79.796287537 -80.561828613
        -83.211326599 -89.353843689 -99.144271851 -82.686210632 -76.723747253 -84.11794281
        -85.736831665 -81.495613098 -82.376983643 -82.359100342 -84.196662903 -79.025123596
        -88.336036682 -85.052947998 -92.974456787 -87.893623352 -86.44909668 -86.677581787
        -82.6537323 -82.619636536 -85.614578247 -77.478393555 -81.650306702 -86.029167175
        -97.755752563 -85.241676331 -77.743927002 -86.573608398 -84.406326294 -91.553253174
        -95.758728027 -85.279502869 -81.544631958 -91.393341064 -79.65007019 -99.905952454
        -82.629966736 -77.361076355 -92.015060425 -83.55280304 -81.123123169 -90.979232788
        -81.028846741 -79.616020203 -88.144813538 -93.508430481 -87.040252686 -82.99559021
        -83.199073792 -93.593421936 -94.427436829 -83.173377991 -82.976043701 -84.088562012
        -95.120452881 -87.57459259 -88.323753357 -97.791748047 -83.703208923 -74.780509949
        -85.431907654 -87.369552612 -81.981742859 -79.450210571 -80.545448303 -88.904533386
        -89.433677673 -81.934593201 -80.557731628 -84.082130432 -86.08228302 -99.290122986
        -90.343193054 -84.729957581 -82.640426636 -88.81413269 -91.535400391 -78.763473511
        -88.364402771 -86.910751343 -81.395202637 -84.000312805 -85.732978821 -83.403343201
        -79.870407104 -85.116783142 -80.801513672 -81.541381836 -81.167732239 -76.256942749
        -93.499633789 -81.635566711 -82.148277283 -83.468261719 -92.389923096 -76.000846863
        -76.544212341 -89.729957581 -88.182640076 -91.261573792 -81.528419495 -80.126266479
        -96.776893616 -85.82598877 -87.413833618 -87.527763367 -95.595016479 -81.582572937
        -91.968139648 -92.783866882 -88.395446777 -80.958061218 -96.067047119 -79.310752869
        -83.347770691 -83.418296814 -93.064537048 -103.7888031 -82.047286987 -90.360076904
        -95.197982788 -86.745368958 -81.926567078 -80.312591553 -82.679039001 -85.672332764
        -77.907043457 -83.943122864 -84.689361572 -79.337432861 -79.676651001 -89.910057068
        -83.04183197 -87.842826843 -93.132888794 -81.785896301 -86.655662537 -83.559463501
        -83.998352051 -83.832427979 -84.127853394 -80.745986938 -94.129837036 -84.478683472
        -86.91708374 -78.612892151 -76.415611267 -86.562858582 -79.464546204 -85.35067749
        -88.739761353 -86.821716309 -80.789482117 -82.95791626 -90.34211731 -97.024353027
        -86.875442505 -83.202842712 -85.850563049 -87.39705658 -81.028846741 -79.529846191
        -79.930511475 -83.478271484 -84.49697113 -87.95223999 -81.086082458 -80.389160156
        -91.324623108 -84.307571411 -80.721870422 -89.32093811 -79.453269958 -90.1379776
        -78.721496582 -83.022926331 -83.960083008 -93.278167725 -78.267402649 -86.367279053
        -84.225479126 -100.40979767 -81.858467102 -89.58556366 -81.778236389 -84.110336304
        -85.893569946 -105.99140167 -76.434883118 -91.384536743 -85.786109924 -85.290328979
        -86.645843506 -88.465690613 -97.180259705 -88.853401184 -76.012466431 -85.18724823
        -89.093193054 -92.098876953 -83.938919067 -93.288833618 -98.872917175 -77.847160339
        -78.081413269 -79.469047546 -84.356880188 -97.924293518 -80.343223572 -86.541748047
        -91.075973511 -87.889137268 -94.752639771 -85.1664505 -87.614929199 -79.392700195
        -82.918746948 -92.878852844 -86.755310059 -92.748260498 -80.203468323 -79.594139099
        -80.565582275 -84.677116394 -83.183006287 -84.060401917 -86.590080261 -100.22399902
        -83.79699707 -80.830947876 -81.506507874 -79.513046265 -85.855621338 -77.632926941
        -81.952301025 -81.815193176 -93.294281006 -82.196342468 -96.949180603 -84.816589355
        -81.556182861 -83.585021973 -85.507926941 -84.585212708 -89.513076782 -83.010223389
        -79.947319031 -82.291557312 -88.304779053 -81.314506531 -82.844856262 -81.706939697
      </DataArray>
    </CellData>
  </Piece>
  </ImageData>
</VTKFile>
