<VTKFile type="ImageData" version="0.1" byte_order="LittleEndian">
  <ImageData WholeExtent="0 2 0 1 0 1" Origin="0 0 0" Spacing="1 1 1">
  <Piece Extent="0 2 0 1 0 1">
    <PointData>
    </PointData>
    <CellData Scalars="RTData">
      <DataArray type="Float32" Name="RTData" format="ascii" RangeMin="30.48062706" RangeMax="66.006614685">
        255 30.48062706
      </DataArray>
    </CellData>
  </Piece>
  </ImageData>
</VTKFile>
